# vtk DataFile Version 3.0
vtk output
ASCII
DATASET POLYDATA
POINTS 3318 float
-1 0.918367 -0.967871 -0.959184 0.918367 -0.960159 -1 1 -1 
-1 0.959184 -0.983936 -0.959184 0.959184 -0.976096 -0.918367 0.959184 -0.968379 
-0.877551 0.959184 -0.960784 -0.959184 1 -0.992032 -0.918367 1 -0.98419 
-0.877551 1 -0.976471 -0.836735 1 -0.968872 -0.795918 1 -0.96139 
-1 0.795918 -0.920908 -1 0.836735 -0.936473 -0.959184 0.836735 -0.929241 
-0.918367 0.836735 -0.922121 -1 0.896293 -0.959184 -1 0.877551 -0.952037 
-0.959184 0.915868 -0.959184 -0.959184 0.877551 -0.944685 -0.918367 0.877551 -0.937446 
-0.877551 0.877551 -0.930317 -0.836735 0.877551 -0.923296 -0.953973 0.918367 -0.959184 
-0.918367 0.935444 -0.959184 -0.918367 0.918367 -0.952772 -0.877551 0.955019 -0.959184 
-0.877551 0.918367 -0.945526 -0.836735 0.918367 -0.93839 -0.795918 0.918367 -0.931361 
-0.755102 0.918367 -0.924437 -0.868867 0.959184 -0.959184 -0.836735 0.974594 -0.959184 
-0.836735 0.959184 -0.953485 -0.795918 0.994169 -0.959184 -0.795918 0.959184 -0.946343 
-0.755102 0.959184 -0.939307 -0.714286 0.959184 -0.932374 -0.673469 0.959184 -0.925544 
-0.632653 0.959184 -0.918813 -0.78376 1 -0.959184 -0.755102 1 -0.954176 
-0.714286 1 -0.947135 -0.673469 1 -0.940196 -0.632653 1 -0.933358 
-0.591837 1 -0.926619 -0.55102 1 -0.919977 -1 0.714286 -0.890643 
-0.959184 0.714286 -0.883972 -1 0.789254 -0.918367 -1 0.755102 -0.905737 
-0.959184 0.755102 -0.898953 -0.918367 0.755102 -0.892269 -0.877551 0.755102 -0.885684 
-0.836735 0.755102 -0.879196 -0.985488 0.795918 -0.918367 -0.959184 0.807997 -0.918367 
-0.959184 0.795918 -0.913934 -0.918367 0.826739 -0.918367 -0.918367 0.795918 -0.907139 
-0.877551 0.795918 -0.900444 -0.836735 0.795918 -0.893848 -0.795918 0.795918 -0.887347 
-0.755102 0.795918 -0.88094 -0.896599 0.836735 -0.918367 -0.877551 0.845481 -0.918367 
-0.877551 0.836735 -0.915204 -0.836735 0.864223 -0.918367 -0.836735 0.836735 -0.9085 
-0.795918 0.836735 -0.901892 -0.755102 0.836735 -0.895381 -0.714286 0.836735 -0.888962 
-0.673469 0.836735 -0.882635 -0.80771 0.877551 -0.918367 -0.795918 0.882965 -0.918367 
-0.795918 0.877551 -0.916438 -0.755102 0.901708 -0.918367 -0.755102 0.877551 -0.909821 
-0.714286 0.877551 -0.903299 -0.673469 0.877551 -0.89687 -0.632653 0.877551 -0.890531 
-0.591837 0.877551 -0.884282 -0.55102 0.877551 -0.87812 -0.718821 0.918367 -0.918367 
-0.714286 0.92045 -0.918367 -0.714286 0.918367 -0.917636 -0.673469 0.939192 -0.918367 
-0.673469 0.918367 -0.911105 -0.632653 0.957934 -0.918367 -0.632653 0.918367 -0.904666 
-0.591837 0.918367 -0.898317 -0.55102 0.918367 -0.892057 -0.510204 0.918367 -0.885884 
-0.469388 0.918367 -0.879795 -0.629932 0.959184 -0.918367 -0.591837 0.976676 -0.918367 
-0.591837 0.959184 -0.912352 -0.55102 0.995419 -0.918367 -0.55102 0.959184 -0.905994 
-0.510204 0.959184 -0.899725 -0.469388 0.959184 -0.893541 -0.428571 0.959184 -0.887442 
-0.387755 0.959184 -0.881425 -0.541043 1 -0.918367 -0.510204 1 -0.913565 
-0.469388 1 -0.907287 -0.428571 1 -0.901094 -0.387755 1 -0.894984 
-0.346939 1 -0.888958 -0.306122 1 -0.883011 -1 0.591837 -0.846303 
-0.959184 0.591837 -0.840148 -1 0.632653 -0.860955 -0.959184 0.632653 -0.854694 
-0.918367 0.632653 -0.848523 -0.877551 0.632653 -0.84244 -1 0.678884 -0.877551 
-1 0.673469 -0.875607 -0.959184 0.696793 -0.877551 -0.959184 0.673469 -0.869239 
-0.918367 0.673469 -0.862963 -0.877551 0.673469 -0.856777 -0.836735 0.673469 -0.850679 
-0.795918 0.673469 -0.844667 -0.755102 0.673469 -0.83874 -0.919317 0.714286 -0.877551 
-0.918367 0.714702 -0.877551 -0.918367 0.714286 -0.877404 -0.877551 0.732611 -0.877551 
-0.877551 0.714286 -0.871114 -0.836735 0.750521 -0.877551 -0.836735 0.714286 -0.864914 
-0.795918 0.714286 -0.858801 -0.755102 0.714286 -0.852775 -0.714286 0.714286 -0.846832 
-0.673469 0.714286 -0.840972 -0.826293 0.755102 -0.877551 -0.795918 0.76843 -0.877551 
-0.795918 0.755102 -0.872936 -0.755102 0.786339 -0.877551 -0.755102 0.755102 -0.86681 
-0.714286 0.755102 -0.860769 -0.673469 0.755102 -0.854813 -0.632653 0.755102 -0.848938 
-0.591837 0.755102 -0.843143 -0.55102 0.755102 -0.837426 -0.73327 0.795918 -0.877551 
-0.714286 0.804248 -0.877551 -0.714286 0.795918 -0.874707 -0.673469 0.822157 -0.877551 
-0.673469 0.795918 -0.868653 -0.632653 0.795918 -0.862683 -0.591837 0.795918 -0.856795 
-0.55102 0.795918 -0.850986 -0.510204 0.795918 -0.845255 -0.469388 0.795918 -0.839601 
-0.640247 0.836735 -0.877551 -0.632653 0.840067 -0.877551 -0.632653 0.836735 -0.876429 
-0.591837 0.857976 -0.877551 -0.591837 0.836735 -0.870446 -0.55102 0.875885 -0.877551 
-0.55102 0.836735 -0.864545 -0.510204 0.836735 -0.858723 -0.469388 0.836735 -0.852979 
-0.428571 0.836735 -0.847312 -0.387755 0.836735 -0.841719 -0.547224 0.877551 -0.877551 
-0.510204 0.893794 -0.877551 -0.510204 0.877551 -0.872191 -0.469388 0.911703 -0.877551 
-0.469388 0.877551 -0.866357 -0.428571 0.877551 -0.860601 -0.387755 0.877551 -0.85492 
-0.346939 0.877551 -0.849314 -0.306122 0.877551 -0.843781 -0.265306 0.877551 -0.83832 
-0.4542 0.918367 -0.877551 -0.428571 0.929613 -0.877551 -0.428571 0.918367 -0.87389 
-0.387755 0.947522 -0.877551 -0.387755 0.918367 -0.868122 -0.346939 0.918367 -0.862429 
-0.306122 0.918367 -0.85681 -0.265306 0.918367 -0.851265 -0.22449 0.918367 -0.84579 
-0.183673 0.918367 -0.840386 -0.361177 0.959184 -0.877551 -0.346939 0.965431 -0.877551 
-0.346939 0.959184 -0.875544 -0.306122 0.98334 -0.877551 -0.306122 0.959184 -0.86984 
-0.265306 0.959184 -0.86421 -0.22449 0.959184 -0.858652 -0.183673 0.959184 -0.853166 
-0.142857 0.959184 -0.847749 -0.102041 0.959184 -0.8424 -0.0612245 0.959184 -0.837119 
-0.268154 1 -0.877551 -0.265306 1 -0.877155 -0.22449 1 -0.871514 
-0.183673 1 -0.865945 -0.142857 1 -0.860447 -0.102041 1 -0.855018 
-0.0612245 1 -0.849658 -0.0204082 1 -0.844364 0.0204082 1 -0.839136 
-1 0.469388 -0.803326 -0.959184 0.469388 -0.797649 -1 0.510204 -0.817561 
-0.959184 0.510204 -0.811783 -0.918367 0.510204 -0.806087 -0.877551 0.510204 -0.800469 
-1 0.565181 -0.836735 -1 0.55102 -0.831796 -0.959184 0.582257 -0.836735 
-0.959184 0.55102 -0.825918 -0.918367 0.55102 -0.820122 -0.877551 0.55102 -0.814407 
-0.836735 0.55102 -0.808771 -0.795918 0.55102 -0.803212 -0.755102 0.55102 -0.797729 
-0.936287 0.591837 -0.836735 -0.918367 0.599334 -0.836735 -0.918367 0.591837 -0.834157 
-0.877551 0.61641 -0.836735 -0.877551 0.591837 -0.828344 -0.836735 0.591837 -0.822611 
-0.795918 0.591837 -0.816958 -0.755102 0.591837 -0.811381 -0.714286 0.591837 -0.80588 
-0.673469 0.591837 -0.800454 -0.838726 0.632653 -0.836735 -0.836735 0.633486 -0.836735 
-0.836735 0.632653 -0.836452 -0.795918 0.650562 -0.836735 -0.795918 0.632653 -0.830703 
-0.755102 0.667638 -0.836735 -0.755102 0.632653 -0.825033 -0.714286 0.632653 -0.81944 
-0.673469 0.632653 -0.813922 -0.632653 0.632653 -0.808477 -0.591837 0.632653 -0.803105 
-0.55102 0.632653 -0.797804 -0.741165 0.673469 -0.836735 -0.714286 0.684715 -0.836735 
-0.714286 0.673469 -0.832999 -0.673469 0.701791 -0.836735 -0.673469 0.673469 -0.82739 
-0.632653 0.673469 -0.821855 -0.591837 0.673469 -0.816394 -0.55102 0.673469 -0.811006 
-0.510204 0.673469 -0.805688 -0.469388 0.673469 -0.800439 -0.643604 0.714286 -0.836735 
-0.632653 0.718867 -0.836735 -0.632653 0.714286 -0.835233 -0.591837 0.735943 -0.836735 
-0.591837 0.714286 -0.829683 -0.55102 0.75302 -0.836735 -0.55102 0.714286 -0.824207 
-0.510204 0.714286 -0.818802 -0.469388 0.714286 -0.813468 -0.428571 0.714286 -0.808203 
-0.387755 0.714286 -0.803005 -0.346939 0.714286 -0.797874 -0.546043 0.755102 -0.836735 
-0.510204 0.770096 -0.836735 -0.510204 0.755102 -0.831917 -0.469388 0.787172 -0.836735 
-0.469388 0.755102 -0.826497 -0.428571 0.755102 -0.821148 -0.387755 0.755102 -0.815867 
-0.346939 0.755102 -0.810654 -0.306122 0.755102 -0.805507 -0.265306 0.755102 -0.800425 
-0.448482 0.795918 -0.836735 -0.428571 0.804248 -0.836735 -0.428571 0.795918 -0.834093 
-0.387755 0.821324 -0.836735 -0.387755 0.795918 -0.828729 -0.346939 0.795918 -0.823434 
-0.306122 0.795918 -0.818205 -0.265306 0.795918 -0.813043 -0.22449 0.795918 -0.807946 
-0.183673 0.795918 -0.802912 -0.142857 0.795918 -0.79794 -0.350921 0.836735 -0.836735 
-0.346939 0.838401 -0.836735 -0.346939 0.836735 -0.836213 -0.306122 0.855477 -0.836735 
-0.306122 0.836735 -0.830904 -0.265306 0.872553 -0.836735 -0.265306 0.836735 -0.825661 
-0.22449 0.836735 -0.820485 -0.183673 0.836735 -0.815373 -0.142857 0.836735 -0.810324 
-0.102041 0.836735 -0.805338 -0.0612245 0.836735 -0.800412 -0.25336 0.877551 -0.836735 
-0.22449 0.889629 -0.836735 -0.22449 0.877551 -0.833024 -0.183673 0.906706 -0.836735 
-0.183673 0.877551 -0.827834 -0.142857 0.877551 -0.822708 -0.102041 0.877551 -0.817645 
-0.0612245 0.877551 -0.812644 -0.0204082 0.877551 -0.807704 0.0204082 0.877551 -0.802824 
0.0612245 0.877551 -0.798002 -0.155799 0.918367 -0.836735 -0.142857 0.923782 -0.836735 
-0.142857 0.918367 -0.835092 -0.102041 0.940858 -0.836735 -0.102041 0.918367 -0.829953 
-0.0612245 0.957934 -0.836735 -0.0612245 0.918367 -0.824877 -0.0204082 0.918367 -0.819862 
0.0204082 0.918367 -0.814908 0.0612245 0.918367 -0.810014 0.102041 0.918367 -0.805178 
0.142857 0.918367 -0.8004 -0.0582379 0.959184 -0.836735 -0.0204082 0.97501 -0.836735 
-0.0204082 0.959184 -0.83202 0.0204082 0.992087 -0.836735 0.0204082 0.959184 -0.826993 
0.0612245 0.959184 -0.822026 0.102041 0.959184 -0.817118 0.142857 0.959184 -0.812269 
0.183673 0.959184 -0.807477 0.22449 0.959184 -0.802741 0.265306 0.959184 -0.79806 
0.039323 1 -0.836735 0.0612245 1 -0.834038 0.102041 1 -0.829059 
0.142857 1 -0.824139 0.183673 1 -0.819276 0.22449 1 -0.814471 
0.265306 1 -0.809722 0.306122 1 -0.805028 0.346939 1 -0.800388 
-1 0.346939 -0.761599 -0.959184 0.346939 -0.756364 -1 0.387755 -0.77544 
-0.959184 0.387755 -0.77011 -0.918367 0.387755 -0.764853 -0.877551 0.387755 -0.759668 
-1 0.448147 -0.795918 -1 0.428571 -0.78928 -0.959184 0.46439 -0.795918 
-0.959184 0.428571 -0.783856 -0.918367 0.428571 -0.778505 -0.877551 0.428571 -0.773227 
[...]
CELL_DATA 6406
POINT_DATA 3318
SCALARS scalars float
LOOKUP_TABLE default
0 0 0 0 0 0 0 0 0 
0 0 0 0 0 0 0 0 0 
0 0 0 0 0 0 0 0 0 
0 0 0 0 0 0 0 0 0 
0 0 0 0 0 0 0 0 0 
0 0 0 0 0 0 0 0 0 
0 0 0 0 0 0 0 0 0 
0 0 0 0 0 0 0 0 0 
0 0 0 0 0 0 0 0 0 
0 0 0 0 0 0 0 0 0 
0 0 0 0 0 0 0 0 0 
0 0 0 0 0 0 0 0 0 
0 0 0 0 0 0 0 0 0 
0 0 0 0 0 0 0 0 0 
0 0 0 0 0 0 0 0 0 
0 0 0 0 0 0 0 0 0 
0 0 0 0 0 0 0 0 0 
0 0 0 0 0 0 0 0 0 
0 0 0 0 0 0 0 0 0 
0 0 0 0 0 0 0 0 0 
0 0 0 0 0 0 0 0 0 
0 0 0 0 0 0 0 0 0 
0 0 0 0 0 0 0 0 0 
0 0 0 0 0 0 0 0 0 
0 0 0 0 0 0 0 0 0 
0 0 0 0 0 0 0 0 0 
0 0 0 0 0 0 0 0 0 
0 0 0 0 0 0 0 0 0 
0 0 0 0 0 0 0 0 0 
0 0 0 0 0 0 0 0 0 
0 0 0 0 0 0 0 0 0 
0 0 0 0 0 0 0 0 0 
0 0 0 0 0 0 0 0 0 
0 0 0 0 0 0 0 0 0 
0 0 0 0 0 0 0 0 0 
0 0 0 0 0 0 0 0 0 
0 0 0 0 0 0 0 0 0 
0 0 0 0 0 0 0 0 0 
0 0 0 0 0 0 0 0 0 
0 0 0 0 0 0 0 0 0 
0 0 0 0 0 0 0 0 0 
0 0 0 0 0 0 0 0 0 
0 0 0 0 0 0 0 0 0 
0 0 0 0 0 0 0 0 0 
0 0 0 0 0 0 0 0 0 
0 0 0 0 0 0 0 0 0 
0 0 0 0 0 0 0 0 0 
0 0 0 0 0 0 0 0 0 
0 0 0 0 0 0 0 0 0 
0 0 0 0 0 0 0 0 0 
0 0 0 0 0 0 0 0 0 
0 0 0 0 0 0 0 0 0 
0 0 0 0 0 0 0 0 0 
0 0 0 0 0 0 0 0 0 
0 0 0 0 0 0 0 0 0 
0 0 0 0 0 0 0 0 0 
0 0 0 0 0 0 0 0 0 
0 0 0 0 0 0 0 0 0 
0 0 0 0 0 0 0 0 0 
0 0 0 0 0 0 0 0 0 
0 0 0 0 0 0 0 0 0 
0 0 0 0 0 0 0 0 0 
0 0 0 0 0 0 0 0 0 
0 0 0 0 0 0 0 0 0 
0 0 0 0 0 0 0 0 0 
0 0 0 0 0 0 0 0 0 
0 0 0 0 0 0 0 0 0 
0 0 0 0 0 0 0 0 0 
0 0 0 0 0 0 0 0 0 
0 0 0 0 0 0 0 0 0 
0 0 0 0 0 0 0 0 0 
0 0 0 0 0 0 0 0 0 
0 0 0 0 0 0 0 0 0 
0 0 0 0 0 0 0 0 0 
0 0 0 0 0 0 0 0 0 
0 0 0 0 0 0 0 0 0 
0 0 0 0 0 0 0 0 0 
0 0 0 0 0 0 0 0 0 
0 0 0 0 0 0 0 0 0 
0 0 0 0 0 0 0 0 0 
0 0 0 0 0 0 0 0 0 
0 0 0 0 0 0 0 0 0 
0 0 0 0 0 0 0 0 0 
0 0 0 0 0 0 0 0 0 
0 0 0 0 0 0 0 0 0 
0 0 0 0 0 0 0 0 0 
0 0 0 0 0 0 0 0 0 
0 0 0 0 0 0 0 0 0 
0 0 0 0 0 0 0 0 0 
0 0 0 0 0 0 0 0 0 
0 0 0 0 0 0 0 0 0 
0 0 0 0 0 0 0 0 0 
0 0 0 0 0 0 0 0 0 
0 0 0 0 0 0 0 0 0 
0 0 0 0 0 0 0 0 0 
0 0 0 0 0 0 0 0 0 
0 0 0 0 0 0 0 0 0 
0 0 0 0 0 0 0 0 0 
0 0 0 0 0 0 0 0 0 
0 0 0 0 0 0 0 0 0 
0 0 0 0 0 0 0 0 0 
0 0 0 0 0 0 0 0 0 
0 0 0 0 0 0 0 0 0 
0 0 0 0 0 0 0 0 0 
0 0 0 0 0 0 0 0 0 
0 0 0 0 0 0 0 0 0 
0 0 0 0 0 0 0 0 0 
0 0 0 0 0 0 0 0 0 
0 0 0 0 0 0 0 0 0 
0 0 0 0 0 0 0 0 0 
0 0 0 0 0 0 0 0 0 
0 0 0 0 0 0 0 0 0 
0 0 0 0 0 0 0 0 0 
0 0 0 0 0 0 0 0 0 
0 0 0 0 0 0 0 0 0 
0 0 0 0 0 0 0 0 0 
0 0 0 0 0 0 0 0 0 
0 0 0 0 0 0 0 0 0 
0 0 0 0 0 0 0 0 0 
0 0 0 0 0 0 0 0 0 
0 0 0 0 0 0 0 0 0 
0 0 0 0 0 0 0 0 0 
0 0 0 0 0 0 0 0 0 
0 0 0 0 0 0 0 0 0 
0 0 0 0 0 0 0 0 0 
0 0 0 0 0 0 0 0 0 
0 0 0 0 0 0 0 0 0 
0 0 0 0 0 0 0 0 0 
0 0 0 0 0 0 0 0 0 
0 0 0 0 0 0 0 0 0 
0 0 0 0 0 0 0 0 0 
0 0 0 0 0 0 0 0 0 
0 0 0 0 0 0 0 0 0 
0 0 0 0 0 0 0 0 0 
0 0 0 0 0 0 0 0 0 
0 0 0 0 0 0 0 0 0 
0 0 0 0 0 0 0 0 0 
0 0 0 0 0 0 0 0 0 
0 0 0 0 0 0 0 0 0 
0 0 0 0 0 0 0 0 0 
0 0 0 0 0 0 0 0 0 
0 0 0 0 0 0 0 0 0 
0 0 0 0 0 0 0 0 0 
0 0 0 0 0 0 0 0 0 
0 0 0 0 0 0 0 0 0 
0 0 0 0 0 0 0 0 0 
0 0 0 0 0 0 0 0 0 
0 0 0 0 0 0 0 0 0 
0 0 0 0 0 0 0 0 0 
0 0 0 0 0 0 0 0 0 
0 0 0 0 0 0 0 0 0 
0 0 0 0 0 0 0 0 0 
0 0 0 0 0 0 0 0 0 
0 0 0 0 0 0 0 0 0 
0 0 0 0 0 0 0 0 0 
0 0 0 0 0 0 0 0 0 
0 0 0 0 0 0 0 0 0 
0 0 0 0 0 0 0 0 0 
0 0 0 0 0 0 0 0 0 
0 0 0 0 0 0 0 0 0 
0 0 0 0 0 0 0 0 0 
0 0 0 0 0 0 0 0 0 
0 0 0 0 0 0 0 0 0 
0 0 0 0 0 0 0 0 0 
0 0 0 0 0 0 0 0 0 
0 0 0 0 0 0 0 0 0 
0 0 0 0 0 0 0 0 0 
0 0 0 0 0 0 0 0 0 
0 0 0 0 0 0 0 0 0 
0 0 0 0 0 0 0 0 0 
0 0 0 0 0 0 0 0 0 
0 0 0 0 0 0 0 0 0 
0 0 0 0 0 0 0 0 0 
0 0 0 0 0 0 0 0 0 
0 0 0 0 0 0 0 0 0 
0 0 0 0 0 0 0 0 0 
0 0 0 0 0 0 0 0 0 
0 0 0 0 0 0 0 0 0 
0 0 0 0 0 0 0 0 0 
0 0 0 0 0 0 0 0 0 
0 0 0 0 0 0 0 0 0 
0 0 0 0 0 0 0 0 0 
0 0 0 0 0 0 0 0 0 
0 0 0 0 0 0 0 0 0 
0 0 0 0 0 0 0 0 0 
0 0 0 0 0 0 0 0 0 
0 0 0 0 0 0 0 0 0 
0 0 0 0 0 0 0 0 0 
0 0 0 0 0 0 0 0 0 
0 0 0 0 0 0 0 0 0 
0 0 0 0 0 0 0 0 0 
0 0 0 0 0 0 0 0 0 
0 0 0 0 0 0 0 0 0 
0 0 0 0 0 0 0 0 0 
0 0 0 0 0 0 0 0 0 
0 0 0 0 0 0 0 0 0 
0 0 0 0 0 0 0 0 0 
0 0 0 0 0 0 0 0 0 
0 0 0 0 0 0 0 0 0 
0 0 0 0 0 0 0 0 0 
0 0 0 0 0 0 0 0 0 
0 0 0 0 0 0 0 0 0 
0 0 0 0 0 0 0 0 0 
0 0 0 0 0 0 0 0 0 
0 0 0 0 0 0 0 0 0 
0 0 0 0 0 0 0 0 0 
0 0 0 0 0 0 0 0 0 
0 0 0 0 0 0 0 0 0 
0 0 0 0 0 0 0 0 0 
0 0 0 0 0 0 0 0 0 
0 0 0 0 0 0 0 0 0 
0 0 0 0 0 0 0 0 0 
0 0 0 0 0 0 0 0 0 
0 0 0 0 0 0 0 0 0 
0 0 0 0 0 0 0 0 0 
0 0 0 0 0 0 0 0 0 
0 0 0 0 0 0 0 0 0 
0 0 0 0 0 0 0 0 0 
0 0 0 0 0 0 0 0 0 
0 0 0 0 0 0 0 0 0 
0 0 0 0 0 0 0 0 0 
0 0 0 0 0 0 0 0 0 
0 0 0 0 0 0 0 0 0 
0 0 0 0 0 0 0 0 0 
0 0 0 0 0 0 0 0 0 
0 0 0 0 0 0 0 0 0 
0 0 0 0 0 0 0 0 0 
0 0 0 0 0 0 0 0 0 
0 0 0 0 0 0 0 0 0 
0 0 0 0 0 0 0 0 0 
0 0 0 0 0 0 0 0 0 
0 0 0 0 0 0 0 0 0 
0 0 0 0 0 0 0 0 0 
0 0 0 0 0 0 0 0 0 
0 0 0 0 0 0 0 0 0 
0 0 0 0 0 0 0 0 0 
0 0 0 0 0 0 0 0 0 
0 0 0 0 0 0 0 0 0 
0 0 0 0 0 0 0 0 0 
0 0 0 0 0 0 0 0 0 
0 0 0 0 0 0 0 0 0 
0 0 0 0 0 0 0 0 0 
0 0 0 0 0 0 0 0 0 
0 0 0 0 0 0 0 0 0 
0 0 0 0 0 0 0 0 0 
0 0 0 0 0 0 0 0 0 
0 0 0 0 0 0 0 0 0 
0 0 0 0 0 0 0 0 0 
0 0 0 0 0 0 0 0 0 
0 0 0 0 0 0 0 0 0 
0 0 0 0 0 0 0 0 0 
0 0 0 0 0 0 0 0 0 
0 0 0 0 0 0 0 0 0 
0 0 0 0 0 0 0 0 0 
0 0 0 0 0 0 0 0 0 
0 0 0 0 0 0 0 0 0 
0 0 0 0 0 0 0 0 0 
0 0 0 0 0 0 0 0 0 
0 0 0 0 0 0 0 0 0 
0 0 0 0 0 0 0 0 0 
0 0 0 0 0 0 0 0 0 
0 0 0 0 0 0 0 0 0 
0 0 0 0 0 0 0 0 0 
0 0 0 0 0 0 0 0 0 
0 0 0 0 0 0 0 0 0 
0 0 0 0 0 0 0 0 0 
0 0 0 0 0 0 0 0 0 
0 0 0 0 0 0 0 0 0 
0 0 0 0 0 0 0 0 0 
0 0 0 0 0 0 0 0 0 
0 0 0 0 0 0 0 0 0 
0 0 0 0 0 0 0 0 0 
0 0 0 0 0 0 0 0 0 
0 0 0 0 0 0 0 0 0 
0 0 0 0 0 0 0 0 0 
0 0 0 0 0 0 0 0 0 
0 0 0 0 0 0 0 0 0 
0 0 0 0 0 0 0 0 0 
0 0 0 0 0 0 0 0 0 
0 0 0 0 0 0 0 0 0 
0 0 0 0 0 0 0 0 0 
0 0 0 0 0 0 0 0 0 
0 0 0 0 0 0 0 0 0 
0 0 0 0 0 0 0 0 0 
0 0 0 0 0 0 0 0 0 
0 0 0 0 0 0 0 0 0 
0 0 0 0 0 0 0 0 0 
0 0 0 0 0 0 0 0 0 
0 0 0 0 0 0 0 0 0 
0 0 0 0 0 0 0 0 0 
0 0 0 0 0 0 0 0 0 
0 0 0 0 0 0 0 0 0 
0 0 0 0 0 0 0 0 0 
0 0 0 0 0 0 0 0 0 
0 0 0 0 0 0 0 0 0 
0 0 0 0 0 0 0 0 0 
0 0 0 0 0 0 0 0 0 
0 0 0 0 0 0 0 0 0 
0 0 0 0 0 0 0 0 0 
0 0 0 0 0 0 0 0 0 
0 0 0 0 0 0 0 0 0 
0 0 0 0 0 0 0 0 0 
0 0 0 0 0 0 0 0 0 
0 0 0 0 0 0 0 0 0 
0 0 0 0 0 0 0 0 0 
0 0 0 0 0 0 0 0 0 
0 0 0 0 0 0 0 0 0 
0 0 0 0 0 0 0 0 0 
0 0 0 0 0 0 0 0 0 
0 0 0 0 0 0 0 0 0 
0 0 0 0 0 0 0 0 0 
0 0 0 0 0 0 0 0 0 
0 0 0 0 0 0 0 0 0 
0 0 0 0 0 0 0 0 0 
0 0 0 0 0 0 0 0 0 
0 0 0 0 0 0 0 0 0 
0 0 0 0 0 0 0 0 0 
0 0 0 0 0 0 0 0 0 
0 0 0 0 0 0 0 0 0 
0 0 0 0 0 0 0 0 0 
0 0 0 0 0 0 0 0 0 
0 0 0 0 0 0 0 0 0 
0 0 0 0 0 0 0 0 0 
0 0 0 0 0 0 0 0 0 
0 0 0 0 0 0 0 0 0 
0 0 0 0 0 0 0 0 0 
0 0 0 0 0 0 0 0 0 
0 0 0 0 0 0 0 0 0 
0 0 0 0 0 0 0 0 0 
0 0 0 0 0 0 0 0 0 
0 0 0 0 0 0 0 0 0 
0 0 0 0 0 0 0 0 0 
0 0 0 0 0 0 0 0 0 
0 0 0 0 0 0 0 0 0 
0 0 0 0 0 0 0 0 0 
0 0 0 0 0 0 0 0 0 
0 0 0 0 0 0 0 0 0 
0 0 0 0 0 0 0 0 0 
0 0 0 0 0 0 0 0 0 
0 0 0 0 0 0 0 0 0 
0 0 0 0 0 0 0 0 0 
0 0 0 0 0 0 0 0 0 
0 0 0 0 0 0 0 0 0 
0 0 0 0 0 0 0 0 0 
0 0 0 0 0 0 0 0 0 
0 0 0 0 0 0 0 0 0 
0 0 0 0 0 0 0 0 0 
0 0 0 0 0 0 0 0 0 
0 0 0 0 0 0 0 0 0 
0 0 0 0 0 0 0 0 0 
0 0 0 0 0 0 0 0 0 
0 0 0 0 0 0 0 0 0 
0 0 0 0 0 0 0 0 0 
0 0 0 0 0 0 0 0 0 
0 0 0 0 0 0 0 0 0 
0 0 0 0 0 0 0 0 0 
0 0 0 0 0 0 0 0 0 
0 0 0 0 0 0 0 0 0 
0 0 0 0 0 0 0 0 0 
0 0 0 0 0 0 0 0 0 
0 0 0 0 0 0 0 0 0 
0 0 0 0 0 0 0 0 0 
0 0 0 0 0 0 0 0 0 
0 0 0 0 0 0 0 0 0 
0 0 0 0 0 0 0 0 0 
0 0 0 0 0 0 0 0 0 
0 0 0 0 0 0 0 0 0 
0 0 0 0 0 0 0 0 0 
0 0 0 0 0 0 
NORMALS Normals float
0.172677 -0.356819 -0.918076 0.169776 -0.353641 -0.919844 0.18012 -0.360241 -0.915305 
0.176383 -0.358525 -0.916705 0.173408 -0.35531 -0.918523 0.170511 -0.352158 -0.920278 
0.167689 -0.349066 -0.921973 0.177072 -0.356988 -0.917172 0.174103 -0.3538 -0.918974 
0.171211 -0.350672 -0.920715 0.168392 -0.347605 -0.922396 0.165645 -0.344595 -0.924021 
0.160039 -0.347567 -0.923897 0.164312 -0.350917 -0.921878 0.161255 -0.347069 -0.923872 
0.158291 -0.343319 -0.925784 0.170687 -0.3559 -0.918804 0.168663 -0.35432 -0.919788 
0.169555 -0.35354 -0.919924 0.1655 -0.350382 -0.921869 0.162434 -0.346545 -0.923863 
0.159458 -0.342804 -0.925774 0.156571 -0.339157 -0.927609 0.169411 -0.35324 -0.920066 
0.168436 -0.351207 -0.921023 0.16665 -0.349821 -0.921875 0.167331 -0.348902 -0.922099 
0.163574 -0.345995 -0.923867 0.160589 -0.342266 -0.925778 0.157693 -0.338629 -0.927612 
0.154881 -0.335081 -0.929372 0.167097 -0.348416 -0.922326 0.166239 -0.346625 -0.923155 
0.164677 -0.345421 -0.923886 0.16516 -0.344375 -0.924191 0.161684 -0.341703 -0.925795 
0.158779 -0.338077 -0.927628 0.155958 -0.33454 -0.929387 0.153218 -0.331088 -0.931077 
0.150556 -0.327718 -0.932702 0.164841 -0.34371 -0.924495 0.162743 -0.341118 -0.925826 
0.15983 -0.337503 -0.927656 0.157002 -0.333976 -0.929414 0.154254 -0.330535 -0.931103 
0.151584 -0.327176 -0.932726 0.148988 -0.323895 -0.934288 0.151944 -0.341201 -0.927629 
0.149236 -0.337649 -0.929366 0.159348 -0.347025 -0.92422 0.155946 -0.344352 -0.925798 
0.153145 -0.340719 -0.927608 0.150425 -0.337175 -0.929347 0.147783 -0.333715 -0.931018 
0.145216 -0.330338 -0.932625 0.158978 -0.346219 -0.924585 0.158311 -0.344767 -0.925242 
0.157122 -0.343836 -0.925791 0.157287 -0.342536 -0.926245 0.15431 -0.340212 -0.927601 
0.151579 -0.336676 -0.92934 0.148926 -0.333225 -0.931011 0.146349 -0.329856 -0.932618 
0.143843 -0.326566 -0.934165 0.156745 -0.341357 -0.926772 0.156274 -0.340331 -0.927229 
0.155439 -0.339681 -0.927607 0.155274 -0.338152 -0.928193 0.152698 -0.336155 -0.929345 
0.150036 -0.332713 -0.931016 0.147448 -0.329352 -0.932623 0.144932 -0.32607 -0.93417 
0.142486 -0.322864 -0.935658 0.15457 -0.336618 -0.928868 0.154285 -0.335999 -0.92914 
0.153783 -0.335611 -0.929363 0.153308 -0.333871 -0.930068 0.151112 -0.332179 -0.931033 
0.148515 -0.328827 -0.932639 0.14599 -0.325554 -0.934185 0.143534 -0.322356 -0.935673 
0.141145 -0.319231 -0.937107 0.13882 -0.316176 -0.938489 0.152449 -0.332 -0.930879 
0.152342 -0.331767 -0.930979 0.152155 -0.331623 -0.931061 0.151387 -0.329688 -0.931873 
0.149549 -0.328282 -0.932666 0.150444 -0.327633 -0.93275 0.147016 -0.325017 -0.934211 
0.144552 -0.321828 -0.935698 0.142154 -0.318711 -0.937131 0.139821 -0.315665 -0.938513 
0.13755 -0.312686 -0.939844 0.150381 -0.327497 -0.932808 0.149511 -0.325601 -0.933612 
0.148012 -0.324461 -0.934247 0.148589 -0.323593 -0.934457 0.14554 -0.321282 -0.935733 
0.143134 -0.318174 -0.937165 0.140793 -0.315136 -0.938545 0.138514 -0.312165 -0.939876 
0.136294 -0.309259 -0.94116 0.148365 -0.323105 -0.934661 0.146498 -0.320717 -0.935777 
0.144086 -0.317619 -0.937207 0.141737 -0.314589 -0.938586 0.139451 -0.311627 -0.939916 
0.137224 -0.30873 -0.941199 0.135054 -0.305895 -0.942437 0.140579 -0.332218 -0.932667 
0.138174 -0.328928 -0.934192 0.144271 -0.335143 -0.931056 0.141785 -0.33178 -0.932641 
0.139368 -0.328496 -0.934167 0.137017 -0.325287 -0.935636 0.148529 -0.338507 -0.929167 
0.148026 -0.33811 -0.929392 0.147581 -0.336347 -0.930102 0.145456 -0.334674 -0.93104 
0.142958 -0.331319 -0.932626 0.140529 -0.328041 -0.934152 0.138166 -0.324838 -0.935623 
0.135868 -0.321708 -0.93704 0.133631 -0.318647 -0.938406 0.146666 -0.334262 -0.930999 
0.146644 -0.334212 -0.93102 0.146607 -0.334183 -0.931036 0.145718 -0.332102 -0.93192 
0.144097 -0.330835 -0.932622 0.144803 -0.330017 -0.932803 0.141657 -0.327564 -0.934149 
0.139284 -0.324368 -0.93562 0.136975 -0.321244 -0.937038 0.134727 -0.31819 -0.938405 
0.132539 -0.315204 -0.939723 0.144571 -0.329487 -0.933026 0.143899 -0.327956 -0.933669 
0.142754 -0.327066 -0.934157 0.143005 -0.325918 -0.93452 0.14037 -0.323878 -0.935628 
0.138051 -0.320761 -0.937046 0.135793 -0.317714 -0.938413 0.133595 -0.314734 -0.939731 
0.131454 -0.311818 -0.941004 0.129368 -0.308966 -0.942234 0.142531 -0.324838 -0.934968 
0.142121 -0.323904 -0.935354 0.141426 -0.323367 -0.935645 0.141247 -0.321912 -0.936174 
0.139097 -0.320258 -0.937063 0.13683 -0.317218 -0.93843 0.134622 -0.314245 -0.939748 
0.132472 -0.311337 -0.941021 0.130377 -0.308491 -0.94225 0.128335 -0.305705 -0.943438 
0.140543 -0.320308 -0.93683 0.140384 -0.319944 -0.936978 0.140113 -0.319737 -0.937089 
0.13953 -0.317998 -0.937768 0.137837 -0.316705 -0.938456 0.138685 -0.316073 -0.938544 
0.135621 -0.313739 -0.939774 0.133462 -0.310838 -0.941046 0.131358 -0.307999 -0.942275 
0.129308 -0.30522 -0.943462 0.12731 -0.302499 -0.944609 0.138607 -0.315895 -0.938615 
0.13785 -0.31417 -0.939305 0.136592 -0.313215 -0.939808 0.137025 -0.312289 -0.940053 
0.134425 -0.310322 -0.941079 0.132313 -0.30749 -0.942307 0.130255 -0.304718 -0.943494 
0.128248 -0.302004 -0.944641 0.126292 -0.299347 -0.945749 0.124383 -0.296744 -0.946822 
0.13672 -0.311594 -0.940328 0.136208 -0.310428 -0.940788 0.135361 -0.30979 -0.941121 
0.135401 -0.308588 -0.941509 0.133242 -0.306966 -0.942347 0.131176 -0.304201 -0.943533 
0.129162 -0.301495 -0.944679 0.127198 -0.298844 -0.945787 0.125282 -0.296248 -0.946859 
0.123412 -0.293704 -0.947896 0.13488 -0.307401 -0.941972 0.134603 -0.306769 -0.942218 
0.134145 -0.306426 -0.942395 0.133813 -0.304969 -0.942915 0.132072 -0.303669 -0.943579 
0.130051 -0.30097 -0.944724 0.12808 -0.298327 -0.945831 0.126157 -0.295738 -0.946902 
0.12428 -0.2932 -0.947939 0.122449 -0.290714 -0.948942 0.120661 -0.288277 -0.949915 
0.133086 -0.303313 -0.943552 0.132943 -0.303123 -0.943633 0.130915 -0.300432 -0.944776 
0.128938 -0.297796 -0.945882 0.127008 -0.295214 -0.946952 0.125125 -0.292684 -0.947987 
0.123287 -0.290205 -0.94899 0.121493 -0.287774 -0.949961 0.119741 -0.28539 -0.950902 
0.130092 -0.323884 -0.93711 0.127954 -0.320827 -0.938455 0.13351 -0.326605 -0.935684 
0.131299 -0.323483 -0.93708 0.129147 -0.320431 -0.938427 0.127052 -0.317445 -0.939727 
0.1382 -0.330332 -0.933693 0.136982 -0.329365 -0.934213 0.137335 -0.328264 -0.934549 
0.134698 -0.326177 -0.935663 0.132474 -0.323061 -0.937061 0.13031 -0.320013 -0.938409 
0.128203 -0.317031 -0.93971 0.12615 -0.314114 -0.940967 0.124151 -0.31126 -0.94218 
0.136854 -0.327115 -0.935022 0.13648 -0.326221 -0.935389 0.135854 -0.325727 -0.935652 
0.135635 -0.324201 -0.936214 0.133619 -0.322616 -0.937051 0.131443 -0.319574 -0.9384 
0.129324 -0.316598 -0.939703 0.12726 -0.313686 -0.94096 0.125248 -0.310836 -0.942175 
0.123288 -0.308047 -0.943349 0.13484 -0.322301 -0.936984 0.1348 -0.322205 -0.937024 
0.134732 -0.322152 -0.937052 0.133974 -0.320231 -0.937818 0.132545 -0.319115 -0.938401 
0.133158 -0.318279 -0.938599 0.130415 -0.316145 -0.939704 0.12834 -0.313239 -0.940962 
0.126318 -0.310394 -0.942178 0.124348 -0.30761 -0.943352 0.122427 -0.304883 -0.944488 
0.120553 -0.302212 -0.945587 0.132881 -0.317618 -0.938862 0.13235 -0.31635 -0.939365 
0.131478 -0.315673 -0.939715 0.131552 -0.314442 -0.940117 0.129393 -0.312773 -0.940973 
0.127361 -0.309934 -0.942189 0.12538 -0.307155 -0.943364 0.123449 -0.304434 -0.9445 
0.121566 -0.301769 -0.945599 0.119729 -0.299157 -0.946662 0.130974 -0.31306 -0.940659 
0.130763 -0.312556 -0.940856 0.130417 -0.312289 -0.940992 0.129983 -0.31069 -0.941582 
0.128376 -0.309457 -0.942208 0.129211 -0.308846 -0.942294 0.126386 -0.306684 -0.943383 
0.124445 -0.303968 -0.944519 0.122553 -0.301309 -0.945618 0.120706 -0.298703 -0.946682 
0.118905 -0.29615 -0.947712 0.117147 -0.293647 -0.948709 0.129117 -0.308622 -0.942381 
0.128448 -0.307022 -0.942995 0.127365 -0.306196 -0.94341 0.127693 -0.305217 -0.943683 
0.125416 -0.303487 -0.944546 0.123514 -0.300833 -0.945645 0.121659 -0.298233 -0.946708 
0.119849 -0.295685 -0.947737 0.118083 -0.293188 -0.948735 0.116358 -0.29074 -0.949701 
0.12731 -0.304301 -0.94403 0.126947 -0.303433 -0.944358 0.126361 -0.30299 -0.944579 
0.126208 -0.301668 -0.945023 0.124451 -0.300342 -0.945678 0.122588 -0.297749 -0.946741 
0.12077 -0.295207 -0.94777 0.118995 -0.292715 -0.948767 0.117262 -0.290273 -0.949732 
0.11557 -0.287877 -0.950668 0.113917 -0.285528 -0.951576 0.125549 -0.300092 -0.945612 
0.125478 -0.299923 -0.945675 0.125364 -0.299837 -0.945718 0.124756 -0.298196 -0.946317 
0.123493 -0.29725 -0.94678 0.124041 -0.296488 -0.946947 0.121667 -0.294714 -0.947808 
0.119885 -0.292229 -0.948804 0.118144 -0.289792 -0.94977 0.116445 -0.287402 -0.950705 
0.114784 -0.285059 -0.951612 0.113162 -0.282759 -0.952492 0.123833 -0.295992 -0.947129 
0.123334 -0.294799 -0.947567 0.122541 -0.294208 -0.947853 0.122635 -0.293127 -0.948176 
0.120752 -0.291729 -0.948848 0.119004 -0.289299 -0.949813 0.117297 -0.286915 -0.950748 
0.11563 -0.284577 -0.951654 0.114001 -0.282283 -0.952533 0.112408 -0.280033 -0.953387 
0.110852 -0.277824 -0.954215 0.122161 -0.291996 -0.948586 0.121943 -0.291473 -0.948775 
0.121596 -0.291217 -0.948898 0.121258 -0.289837 -0.949363 0.119842 -0.288793 -0.949861 
0.120581 -0.288218 -0.949942 0.118129 -0.286416 -0.950795 0.116455 -0.284084 -0.951701 
0.114819 -0.281796 -0.952579 0.11322 -0.279551 -0.953432 0.111657 -0.277347 -0.954259 
0.110129 -0.275184 -0.955063 0.120532 -0.2881 -0.949984 0.119911 -0.286616 -0.950512 
0.118939 -0.285904 -0.950848 0.119248 -0.285031 -0.951072 0.117259 -0.283579 -0.951753 
0.115617 -0.281297 -0.95263 0.114012 -0.279058 -0.953482 0.112443 -0.276861 -0.954309 
0.110908 -0.274703 -0.955111 0.109408 -0.272585 -0.955891 0.10794 -0.270505 -0.956648 
0.118943 -0.284302 -0.951328 0.118043 -0.283063 -0.951809 0.116395 -0.280788 -0.952686 
0.114784 -0.278555 -0.953536 0.113209 -0.276364 -0.954362 0.111669 -0.274212 -0.955164 
0.110163 -0.2721 -0.955943 0.108689 -0.270025 -0.956699 0.107247 -0.267987 -0.957435 
0.120381 -0.316127 -0.941048 0.118476 -0.313279 -0.942242 0.123553 -0.318665 -0.939781 
0.121584 -0.315758 -0.941018 0.119666 -0.312912 -0.942213 0.117796 -0.310126 -0.943369 
0.128335 -0.322484 -0.937835 0.126773 -0.321237 -0.938475 0.127548 -0.320505 -0.938621 
0.124739 -0.318271 -0.939757 0.122758 -0.315368 -0.940996 0.120827 -0.312526 -0.942193 
0.118945 -0.309743 -0.943351 0.117109 -0.307018 -0.944471 0.11532 -0.304348 -0.945555 
0.127307 -0.3199 -0.938859 0.126769 -0.318548 -0.939392 0.125896 -0.317856 -0.939743 
0.125999 -0.316614 -0.940149 0.123902 -0.314958 -0.940983 0.121959 -0.31212 -0.942182 
0.120065 -0.309341 -0.943341 0.118218 -0.306619 -0.944462 0.116416 -0.303953 -0.945547 
0.114659 -0.301341 -0.946598 0.112944 -0.298781 -0.947615 0.125374 -0.315043 -0.94076 
0.125238 -0.314701 -0.940892 0.125018 -0.314528 -0.94098 0.124486 -0.31281 -0.941623 
0.123063 -0.311695 -0.942179 0.123742 -0.31094 -0.94234 0.121157 -0.30892 -0.943339 
0.119299 -0.306203 -0.944461 0.117486 -0.303541 -0.945547 0.115718 -0.300933 -0.946599 
0.113992 -0.298376 -0.947617 0.112308 -0.29587 -0.948603 0.123495 -0.310322 -0.942576 
0.123006 -0.309091 -0.943044 0.122223 -0.308482 -0.943345 0.122278 -0.307263 -0.943736 
0.120354 -0.305769 -0.944468 0.118531 -0.303112 -0.945555 0.116752 -0.300508 -0.946607 
0.115016 -0.297956 -0.947625 0.113321 -0.295453 -0.948612 0.111667 -0.293 -0.949569 
0.110051 -0.290594 -0.950497 0.121669 -0.305731 -0.944312 0.121558 -0.305455 -0.944416 
0.121383 -0.305319 -0.944482 0.120847 -0.303666 -0.945084 0.119549 -0.302666 -0.945569 
0.120143 -0.301897 -0.94574 0.11776 -0.300067 -0.946622 0.116014 -0.297519 -0.947641 
0.11431 -0.295022 -0.948628 0.112646 -0.292573 -0.949585 0.111021 -0.290171 -0.950513 
0.109433 -0.287815 -0.951413 0.107882 -0.285503 -0.952286 0.119892 -0.301267 -0.945973 
0.119447 -0.300148 -0.946385 0.118744 -0.29961 -0.946643 0.118758 -0.298417 -0.947018 
0.116989 -0.297068 -0.947663 0.115276 -0.294575 -0.94865 0.113602 -0.292131 -0.949607 
0.111968 -0.289733 -0.950535 0.110372 -0.287382 -0.951436 0.108812 -0.285074 -0.952309 
0.107287 -0.28281 -0.953157 0.118164 -0.296924 -0.947562 0.118077 -0.296706 -0.947641 
0.11794 -0.296602 -0.947691 0.117403 -0.295012 -0.948253 0.116217 -0.294114 -0.948678 
0.116736 -0.293337 -0.948855 0.114536 -0.291675 -0.949635 0.112893 -0.289282 -0.950563 
0.111288 -0.286935 -0.951464 0.109719 -0.284633 -0.952337 0.108186 -0.282373 -0.953185 
0.106688 -0.280154 -0.954008 0.105223 -0.277976 -0.954808 0.116482 -0.292697 -0.949084 
0.116077 -0.29168 -0.949447 0.115446 -0.291205 -0.949669 0.115424 -0.29004 -0.950029 
0.113795 -0.288818 -0.950597 0.112182 -0.286476 -0.951497 0.110606 -0.284178 -0.95237 
0.109065 -0.281923 -0.953218 0.107559 -0.279709 -0.954041 0.106086 -0.277536 -0.95484 
0.104645 -0.275402 -0.955617 0.103236 -0.273305 -0.956371 0.114844 -0.288583 -0.950542 
0.114778 -0.288417 -0.950601 0.114676 -0.288341 -0.950636 0.11414 -0.286812 -0.951163 