# vtk DataFile Version 3.0
vtk output
ASCII
DATASET STRUCTURED_POINTS
DIMENSIONS 30 30 30
SPACING 0.0689655 0.0689655 0.0689655
ORIGIN -1 -1 -1
CELL_DATA 24389
POINT_DATA 27000
SCALARS scalars float
LOOKUP_TABLE default
1.6 1.53341 1.47158 1.41451 1.36219 1.31463 1.27182 1.23377 1.20048 
1.17194 1.14816 1.12913 1.11486 1.10535 1.10059 1.10059 1.10535 1.11486 
1.12913 1.14816 1.17194 1.20048 1.23377 1.27182 1.31463 1.36219 1.41451 
1.47158 1.53341 1.6 1.47372 1.40713 1.3453 1.28823 1.23591 1.18835 
1.14554 1.10749 1.0742 1.04566 1.02188 1.00285 0.988585 0.979073 0.974316 
0.974316 0.979073 0.988585 1.00285 1.02188 1.04566 1.0742 1.10749 1.14554 
1.18835 1.23591 1.28823 1.3453 1.40713 1.47372 1.35696 1.29037 1.22854 
1.17146 1.11914 1.07158 1.02878 0.990725 0.957432 0.928894 0.905113 0.886088 
0.871819 0.862307 0.857551 0.857551 0.862307 0.871819 0.886088 0.905113 0.928894 
0.957432 0.990725 1.02878 1.07158 1.11914 1.17146 1.22854 1.29037 1.35696 
1.2497 1.18312 1.12128 1.06421 1.01189 0.964328 0.921522 0.883472 0.850178 
0.821641 0.79786 0.778835 0.764566 0.755054 0.750297 0.750297 0.755054 0.764566 
0.778835 0.79786 0.821641 0.850178 0.883472 0.921522 0.964328 1.01189 1.06421 
1.12128 1.18312 1.2497 1.15196 1.08537 1.02354 0.966468 0.91415 0.866587 
0.823781 0.785731 0.752438 0.7239 0.700119 0.681094 0.666825 0.657313 0.652556 
0.652556 0.657313 0.666825 0.681094 0.700119 0.7239 0.752438 0.785731 0.823781 
0.866587 0.91415 0.966468 1.02354 1.08537 1.15196 1.06373 0.997146 0.935315 
0.87824 0.825921 0.778359 0.735553 0.697503 0.664209 0.635672 0.611891 0.592866 
0.578597 0.569084 0.564328 0.564328 0.569084 0.578597 0.592866 0.611891 0.635672 
0.664209 0.697503 0.735553 0.778359 0.825921 0.87824 0.935315 0.997146 1.06373 
0.985018 0.918431 0.856599 0.799524 0.747206 0.699643 0.656837 0.618787 0.585494 
0.556956 0.533175 0.51415 0.499881 0.490369 0.485612 0.485612 0.490369 0.499881 
0.51415 0.533175 0.556956 0.585494 0.618787 0.656837 0.699643 0.747206 0.799524 
0.856599 0.91843 0.985018 0.915815 0.849227 0.787396 0.730321 0.678002 0.63044 
0.587634 0.549584 0.51629 0.487753 0.463971 0.444946 0.430678 0.421165 0.416409 
0.416409 0.421165 0.430678 0.444946 0.463971 0.487753 0.51629 0.549584 0.587634 
0.63044 0.678002 0.730321 0.787396 0.849227 0.915815 0.856124 0.789536 0.727705 
0.67063 0.618312 0.570749 0.527943 0.489893 0.456599 0.428062 0.404281 0.385256 
0.370987 0.361474 0.356718 0.356718 0.361474 0.370987 0.385256 0.404281 0.428062 
0.456599 0.489893 0.527943 0.570749 0.618312 0.67063 0.727705 0.789536 0.856124 
0.805945 0.739358 0.677527 0.620452 0.568133 0.520571 0.477765 0.439715 0.406421 
0.377883 0.354102 0.335077 0.320809 0.311296 0.30654 0.30654 0.311296 0.320809 
0.335077 0.354102 0.377883 0.406421 0.439715 0.477765 0.520571 0.568133 0.620452 
0.677527 0.739358 0.805945 0.765279 0.698692 0.636861 0.579786 0.527467 0.479905 
0.437099 0.399049 0.365755 0.337218 0.313436 0.294411 0.280143 0.27063 0.265874 
0.265874 0.27063 0.280143 0.294411 0.313436 0.337218 0.365755 0.399049 0.437099 
0.479905 0.527467 0.579786 0.636861 0.698692 0.765279 0.734126 0.667539 0.605707 
0.548633 0.496314 0.448751 0.405945 0.367895 0.334602 0.306064 0.282283 0.263258 
0.248989 0.239477 0.234721 0.234721 0.239477 0.248989 0.263258 0.282283 0.306064 
0.334602 0.367895 0.405945 0.448751 0.496314 0.548633 0.605707 0.667539 0.734126 
0.712485 0.645898 0.584067 0.526992 0.474673 0.427111 0.384304 0.346254 0.312961 
0.284423 0.260642 0.241617 0.227348 0.217836 0.21308 0.21308 0.217836 0.227348 
0.241617 0.260642 0.284423 0.312961 0.346254 0.384304 0.427111 0.474673 0.526992 
0.584067 0.645898 0.712485 0.700357 0.633769 0.571938 0.514863 0.462545 0.414982 
0.372176 0.334126 0.300832 0.272295 0.248514 0.229489 0.21522 0.205707 0.200951 
0.200951 0.205707 0.21522 0.229489 0.248514 0.272295 0.300832 0.334126 0.372176 
0.414982 0.462545 0.514863 0.571938 0.633769 0.700357 0.697741 0.631153 0.569322 
0.512247 0.459929 0.412366 0.36956 0.33151 0.298216 0.269679 0.245898 0.226873 
0.212604 0.203092 0.198335 0.198335 0.203092 0.212604 0.226873 0.245898 0.269679 
0.298216 0.33151 0.36956 0.412366 0.459929 0.512247 0.569322 0.631153 0.697741 
0.704637 0.63805 0.576219 0.519144 0.466825 0.419263 0.376457 0.338407 0.305113 
0.276576 0.252794 0.233769 0.219501 0.209988 0.205232 0.205232 0.209988 0.219501 
0.233769 0.252794 0.276576 0.305113 0.338407 0.376457 0.419263 0.466825 0.519144 
0.576219 0.63805 0.704637 0.721046 0.654459 0.592628 0.535553 0.483234 0.435672 
0.392866 0.354816 0.321522 0.292985 0.269203 0.250178 0.23591 0.226397 0.221641 
0.221641 0.226397 0.23591 0.250178 0.269203 0.292985 0.321522 0.354816 0.392866 
0.435672 0.483234 0.535553 0.592628 0.654459 0.721046 0.746968 0.680381 0.618549 
0.561474 0.509156 0.461593 0.418787 0.380737 0.347444 0.318906 0.295125 0.2761 
0.261831 0.252319 0.247562 0.247562 0.252319 0.261831 0.2761 0.295125 0.318906 
0.347444 0.380737 0.418787 0.461593 0.509156 0.561474 0.618549 0.68038 0.746968 
0.782402 0.715815 0.653983 0.596908 0.54459 0.497027 0.454221 0.416171 0.382878 
0.35434 0.330559 0.311534 0.297265 0.287753 0.282996 0.282996 0.287753 0.297265 
0.311534 0.330559 0.35434 0.382878 0.416171 0.454221 0.497027 0.54459 0.596908 
0.653983 0.715814 0.782402 0.827348 0.760761 0.69893 0.641855 0.589536 0.541974 
0.499168 0.461118 0.427824 0.399287 0.375505 0.35648 0.342212 0.332699 0.327943 
0.327943 0.332699 0.342212 0.35648 0.375505 0.399287 0.427824 0.461118 0.499168 
0.541974 0.589536 0.641855 0.69893 0.760761 0.827348 0.881807 0.81522 0.753389 
0.696314 0.643995 0.596433 0.553627 0.515577 0.482283 0.453746 0.429964 0.410939 
0.396671 0.387158 0.382402 0.382402 0.387158 0.396671 0.410939 0.429964 0.453746 
0.482283 0.515577 0.553627 0.596433 0.643995 0.696314 0.753389 0.81522 0.881807 
0.945779 0.879191 0.81736 0.760285 0.707967 0.660404 0.617598 0.579548 0.546254 
0.517717 0.493936 0.474911 0.460642 0.45113 0.446373 0.446373 0.45113 0.460642 
0.474911 0.493936 0.517717 0.546254 0.579548 0.617598 0.660404 0.707967 0.760285 
0.81736 0.879191 0.945779 1.01926 0.952675 0.890844 0.833769 0.781451 0.733888 
0.691082 0.653032 0.619738 0.591201 0.56742 0.548395 0.534126 0.524614 0.519857 
0.519857 0.524614 0.534126 0.548395 0.56742 0.591201 0.619738 0.653032 0.691082 
0.733888 0.781451 0.833769 0.890844 0.952675 1.01926 1.10226 1.03567 0.973841 
0.916766 0.864447 0.816885 0.774078 0.736029 0.702735 0.674197 0.650416 0.631391 
0.617122 0.60761 0.602854 0.602854 0.60761 0.617122 0.631391 0.650416 0.674197 
0.702735 0.736029 0.774078 0.816885 0.864447 0.916766 0.973841 1.03567 1.10226 
1.19477 1.12818 1.06635 1.00927 0.956956 0.909394 0.866587 0.828537 0.795244 
0.766706 0.742925 0.7239 0.709631 0.700119 0.695363 0.695363 0.700119 0.709631 
0.7239 0.742925 0.766706 0.795244 0.828537 0.866587 0.909394 0.956956 1.00927 
1.06635 1.12818 1.19477 1.29679 1.2302 1.16837 1.1113 1.05898 1.01141 
0.968609 0.930559 0.897265 0.868728 0.844946 0.825921 0.811653 0.80214 0.797384 
0.797384 0.80214 0.811653 0.825921 0.844946 0.868728 0.897265 0.930559 0.968609 
1.01141 1.05898 1.1113 1.16837 1.2302 1.29679 1.40832 1.34174 1.2799 
1.22283 1.17051 1.12295 1.08014 1.04209 1.0088 0.980262 0.95648 0.937455 
0.923187 0.913674 0.908918 0.908918 0.913674 0.923187 0.937455 0.95648 0.980262 
1.0088 1.04209 1.08014 1.12295 1.17051 1.22283 1.2799 1.34174 1.40832 
1.52937 1.46278 1.40095 1.34388 1.29156 1.244 1.20119 1.16314 1.12985 
1.10131 1.07753 1.0585 1.04423 1.03472 1.02996 1.02996 1.03472 1.04423 
1.0585 1.07753 1.10131 1.12985 1.16314 1.20119 1.244 1.29156 1.34388 
1.40095 1.46278 1.52937 1.65993 1.59334 1.53151 1.47444 1.42212 1.37455 
1.33175 1.2937 1.2604 1.23187 1.20809 1.18906 1.17479 1.16528 1.16052 
1.16052 1.16528 1.17479 1.18906 1.20809 1.23187 1.2604 1.2937 1.33175 
1.37455 1.42212 1.47444 1.53151 1.59334 1.65993 1.8 1.73341 1.67158 
1.61451 1.56219 1.51463 1.47182 1.43377 1.40048 1.37194 1.34816 1.32913 
1.31486 1.30535 1.30059 1.30059 1.30535 1.31486 1.32913 1.34816 1.37194 
1.40048 1.43377 1.47182 1.51463 1.56219 1.61451 1.67158 1.73341 1.8 
1.56647 1.49988 1.43805 1.38098 1.32866 1.28109 1.23829 1.20024 1.16694 
1.13841 1.11463 1.0956 1.08133 1.07182 1.06706 1.06706 1.07182 1.08133 
1.0956 1.11463 1.13841 1.16694 1.20024 1.23829 1.28109 1.32866 1.38098 
1.43805 1.49988 1.56647 1.44067 1.37408 1.31225 1.25517 1.20285 1.15529 
1.11249 1.07444 1.04114 1.0126 0.988823 0.969798 0.955529 0.946017 0.94126 
0.94126 0.946017 0.955529 0.969798 0.988823 1.0126 1.04114 1.07444 1.11249 
1.15529 1.20285 1.25517 1.31225 1.37408 1.44067 1.32438 1.25779 1.19596 
1.13888 1.08656 1.039 0.996195 0.958145 0.924851 0.896314 0.872533 0.853508 
0.839239 0.829727 0.82497 0.82497 0.829727 0.839239 0.853508 0.872533 0.896314 
0.924851 0.958145 0.996195 1.039 1.08656 1.13888 1.19596 1.25779 1.32438 
1.2176 1.15101 1.08918 1.0321 0.979786 0.932224 0.889417 0.851367 0.818074 
0.789536 0.765755 0.74673 0.732461 0.722949 0.718193 0.718193 0.722949 0.732461 
0.74673 0.765755 0.789536 0.818074 0.851367 0.889417 0.932224 0.979786 1.0321 
1.08918 1.15101 1.2176 1.12033 1.05375 0.991914 0.934839 0.882521 0.834958 
0.792152 0.754102 0.720809 0.692271 0.66849 0.649465 0.635196 0.625684 0.620927 
0.620927 0.625684 0.635196 0.649465 0.66849 0.692271 0.720809 0.754102 0.792152 
0.834958 0.882521 0.934839 0.991914 1.05375 1.12033 1.03258 0.965993 0.904162 
0.847087 0.794768 0.747206 0.7044 0.66635 0.633056 0.604518 0.580737 0.561712 
0.547444 0.537931 0.533175 0.533175 0.537931 0.547444 0.561712 0.580737 0.604518 
0.633056 0.66635 0.7044 0.747206 0.794768 0.847087 0.904162 0.965993 1.03258 
0.95434 0.887753 0.825922 0.768847 0.716528 0.668966 0.626159 0.588109 0.554816 
0.526278 0.502497 0.483472 0.469203 0.459691 0.454935 0.454935 0.459691 0.469203 
0.483472 0.502497 0.526278 0.554816 0.588109 0.626159 0.668966 0.716528 0.768847 
0.825922 0.887753 0.95434 0.885612 0.819025 0.757194 0.700119 0.6478 0.600238 
0.557432 0.519382 0.486088 0.457551 0.433769 0.414744 0.400476 0.390963 0.386207 
0.386207 0.390963 0.400476 0.414744 0.433769 0.457551 0.486088 0.519382 0.557432 
0.600238 0.6478 0.700119 0.757194 0.819025 0.885612 0.826397 0.75981 0.697979 
0.640904 0.588585 0.541023 0.498216 0.460166 0.426873 0.398335 0.374554 0.355529 
0.34126 0.331748 0.326992 0.326992 0.331748 0.34126 0.355529 0.374554 0.398335 
0.426873 0.460166 0.498216 0.541023 0.588585 0.640904 0.697979 0.75981 0.826397 
0.776694 0.710107 0.648276 0.591201 0.538882 0.49132 0.448514 0.410464 0.37717 
0.348633 0.324851 0.305826 0.291558 0.282045 0.277289 0.277289 0.282045 0.291558 
0.305826 0.324851 0.348633 0.37717 0.410464 0.448514 0.49132 0.538882 0.591201 
0.648276 0.710107 0.776694 0.736504 0.669917 0.608086 0.551011 0.498692 0.45113 
0.408323 0.370273 0.33698 0.308442 0.284661 0.265636 0.251367 0.241855 0.237099 
0.237099 0.241855 0.251367 0.265636 0.284661 0.308442 0.33698 0.370273 0.408323 
0.45113 0.498692 0.551011 0.608086 0.669917 0.736504 0.705826 0.639239 0.577408 
0.520333 0.468014 0.420452 0.377646 0.339596 0.306302 0.277765 0.253983 0.234958 
0.22069 0.211177 0.206421 0.206421 0.211177 0.22069 0.234958 0.253983 0.277765 
0.306302 0.339596 0.377646 0.420452 0.468014 0.520333 0.577408 0.639239 0.705826 
0.684661 0.618074 0.556243 0.499168 0.446849 0.399287 0.35648 0.31843 0.285137 
0.256599 0.232818 0.213793 0.199524 0.190012 0.185256 0.185256 0.190012 0.199524 
0.213793 0.232818 0.256599 0.285137 0.31843 0.35648 0.399287 0.446849 0.499168 
0.556243 0.618074 0.684661 0.673008 0.606421 0.54459 0.487515 0.435196 0.387634 
0.344828 0.306778 0.273484 0.244946 0.221165 0.20214 0.187872 0.178359 0.173603 
0.173603 0.178359 0.187872 0.20214 0.221165 0.244946 0.273484 0.306778 0.344828 
0.387634 0.435196 0.487515 0.54459 0.606421 0.673008 0.670868 0.604281 0.542449 
0.485375 0.433056 0.385493 0.342687 0.304637 0.271344 0.242806 0.219025 0.2 
0.185731 0.176219 0.171463 0.171463 0.176219 0.185731 0.2 0.219025 0.242806 
0.271344 0.304637 0.342687 0.385493 0.433056 0.485375 0.542449 0.604281 0.670868 
0.67824 0.611653 0.549822 0.492747 0.440428 0.392866 0.350059 0.31201 0.278716 
0.250178 0.226397 0.207372 0.193103 0.183591 0.178835 0.178835 0.183591 0.193103 
0.207372 0.226397 0.250178 0.278716 0.31201 0.350059 0.392866 0.440428 0.492747 
0.549822 0.611653 0.67824 0.695125 0.628537 0.566706 0.509631 0.457313 0.40975 
0.366944 0.328894 0.2956 0.267063 0.243282 0.224257 0.209988 0.200476 0.195719 
0.195719 0.200476 0.209988 0.224257 0.243282 0.267063 0.2956 0.328894 0.366944 
0.40975 0.457313 0.509631 0.566706 0.628537 0.695125 0.721522 0.654935 0.593103 
0.536029 0.48371 0.436147 0.393341 0.355291 0.321998 0.29346 0.269679 0.250654 
0.236385 0.226873 0.222117 0.222117 0.226873 0.236385 0.250654 0.269679 0.29346 
0.321998 0.355291 0.393341 0.436147 0.48371 0.536029 0.593103 0.654935 0.721522 
0.757432 0.690844 0.629013 0.571938 0.519619 0.472057 0.429251 0.391201 0.357907 
0.32937 0.305589 0.286564 0.272295 0.262782 0.258026 0.258026 0.262782 0.272295 
0.286564 0.305589 0.32937 0.357907 0.391201 0.429251 0.472057 0.519619 0.571938 
0.629013 0.690844 0.757432 0.802854 0.736266 0.674435 0.61736 0.565042 0.517479 
0.474673 0.436623 0.403329 0.374792 0.351011 0.331986 0.317717 0.308205 0.303448 
0.303448 0.308205 0.317717 0.331986 0.351011 0.374792 0.403329 0.436623 0.474673 
0.517479 0.565042 0.61736 0.674435 0.736266 0.802854 0.857788 0.791201 0.72937 
0.672295 0.619976 0.572414 0.529608 0.491558 0.458264 0.429727 0.405945 0.38692 
0.372652 0.363139 0.358383 0.358383 0.363139 0.372652 0.38692 0.405945 0.429727 
0.458264 0.491558 0.529608 0.572414 0.619976 0.672295 0.72937 0.791201 0.857788 
0.922235 0.855648 0.793817 0.736742 0.684423 0.636861 0.594055 0.556005 0.522711 
0.494174 0.470392 0.451367 0.437099 0.427586 0.42283 0.42283 0.427586 0.437099 
0.451367 0.470392 0.494174 0.522711 0.556005 0.594055 0.636861 0.684423 0.736742 
0.793817 0.855648 0.922235 0.996195 0.929608 0.867776 0.810702 0.758383 0.71082 
0.668014 0.629964 0.596671 0.568133 0.544352 0.525327 0.511058 0.501546 0.49679 
0.49679 0.501546 0.511058 0.525327 0.544352 0.568133 0.596671 0.629964 0.668014 
0.71082 0.758383 0.810702 0.867776 0.929608 0.996195 1.07967 1.01308 0.951249 
0.894174 0.841855 0.794293 0.751486 0.713436 0.680143 0.651605 0.627824 0.608799 
0.59453 0.585018 0.580262 0.580262 0.585018 0.59453 0.608799 0.627824 0.651605 
0.680143 0.713436 0.751486 0.794293 0.841855 0.894174 0.951249 1.01308 1.07967 
1.17265 1.10606 1.04423 0.987158 0.934839 0.887277 0.844471 0.806421 0.773127 
0.74459 0.720809 0.701784 0.687515 0.678002 0.673246 0.673246 0.678002 0.687515 
0.701784 0.720809 0.74459 0.773127 0.806421 0.844471 0.887277 0.934839 0.987158 
1.04423 1.10606 1.17265 1.27515 1.20856 1.14673 1.08966 1.03734 0.989774 
0.946968 0.908918 0.875624 0.847087 0.823306 0.804281 0.790012 0.780499 0.775743 
0.775743 0.780499 0.790012 0.804281 0.823306 0.847087 0.875624 0.908918 0.946968 
0.989774 1.03734 1.08966 1.14673 1.20856 1.27515 1.38716 1.32057 1.25874 
1.20166 1.14935 1.10178 1.05898 1.02093 0.987634 0.959096 0.935315 0.91629 
0.902021 0.892509 0.887753 0.887753 0.892509 0.902021 0.91629 0.935315 0.959096 
0.987634 1.02093 1.05898 1.10178 1.14935 1.20166 1.25874 1.32057 1.38716 
1.50868 1.44209 1.38026 1.32319 1.27087 1.22331 1.1805 1.14245 1.10916 
1.08062 1.05684 1.03781 1.02354 1.01403 1.00927 1.00927 1.01403 1.02354 
1.03781 1.05684 1.08062 1.10916 1.14245 1.1805 1.22331 1.27087 1.32319 
1.38026 1.44209 1.50868 1.63971 1.57313 1.5113 1.45422 1.4019 1.35434 
1.31153 1.27348 1.24019 1.21165 1.18787 1.16885 1.15458 1.14507 1.14031 
1.14031 1.14507 1.15458 1.16885 1.18787 1.21165 1.24019 1.27348 1.31153 
1.35434 1.4019 1.45422 1.5113 1.57313 1.63971 1.78026 1.71367 1.65184 
1.59477 1.54245 1.49489 1.45208 1.41403 1.38074 1.3522 1.32842 1.30939 
1.29512 1.28561 1.28086 1.28086 1.28561 1.29512 1.30939 1.32842 1.3522 
1.38074 1.41403 1.45208 1.49489 1.54245 1.59477 1.65184 1.71367 1.78026 
1.53484 1.46825 1.40642 1.34935 1.29703 1.24946 1.20666 1.16861 1.13532 
1.10678 1.083 1.06397 1.0497 1.04019 1.03543 1.03543 1.04019 1.0497 
1.06397 1.083 1.10678 1.13532 1.16861 1.20666 1.24946 1.29703 1.34935 
1.40642 1.46825 1.53484 1.40951 1.34293 1.28109 1.22402 1.1717 1.12414 
1.08133 1.04328 1.00999 0.981451 0.957669 0.938645 0.924376 0.914863 0.910107 
0.910107 0.914863 0.924376 0.938645 0.957669 0.981451 1.00999 1.04328 1.08133 
1.12414 1.1717 1.22402 1.28109 1.34293 1.40951 1.2937 1.22711 1.16528 
1.1082 1.05589 1.00832 0.965517 0.927467 0.894174 0.865636 0.841855 0.82283 
0.808561 0.799049 0.794293 0.794293 0.799049 0.808561 0.82283 0.841855 0.865636 
0.894174 0.927467 0.965517 1.00832 1.05589 1.1082 1.16528 1.22711 1.2937 
1.1874 1.12081 1.05898 1.0019 0.949584 0.902021 0.859215 0.821165 0.787872 
0.759334 0.735553 0.716528 0.702259 0.692747 0.68799 0.68799 0.692747 0.702259 
0.716528 0.735553 0.759334 0.787872 0.821165 0.859215 0.902021 0.949584 1.0019 
1.05898 1.12081 1.1874 1.09061 1.02402 0.962188 0.905113 0.852794 0.805232 
0.762426 0.724376 0.691082 0.662545 0.638763 0.619738 0.60547 0.595957 0.591201 
0.591201 0.595957 0.60547 0.619738 0.638763 0.662545 0.691082 0.724376 0.762426 
0.805232 0.852794 0.905113 0.962188 1.02402 1.09061 1.00333 0.936742 0.874911 
0.817836 0.765517 0.717955 0.675149 0.637099 0.603805 0.575268 0.551486 0.532461 
0.518193 0.50868 0.503924 0.503924 0.50868 0.518193 0.532461 0.551486 0.575268 
0.603805 0.637099 0.675149 0.717955 0.765517 0.817836 0.874911 0.936742 1.00333 
0.925565 0.858977 0.797146 0.740071 0.687753 0.64019 0.597384 0.559334 0.52604 
0.497503 0.473722 0.454697 0.440428 0.430916 0.426159 0.426159 0.430916 0.440428 
0.454697 0.473722 0.497503 0.52604 0.559334 0.597384 0.64019 0.687753 0.740071 
0.797146 0.858977 0.925565 0.857313 0.790725 0.728894 0.671819 0.619501 0.571938 
0.529132 0.491082 0.457788 0.429251 0.40547 0.386445 0.372176 0.362663 0.357907 
0.357907 0.362663 0.372176 0.386445 0.40547 0.429251 0.457788 0.491082 0.529132 
0.571938 0.619501 0.671819 0.728894 0.790725 0.857313 0.798573 0.731986 0.670155 
0.61308 0.560761 0.513199 0.470392 0.432342 0.399049 0.370511 0.34673 0.327705 
0.313436 0.303924 0.299168 0.299168 0.303924 0.313436 0.327705 0.34673 0.370511 
0.399049 0.432342 0.470392 0.513199 0.560761 0.61308 0.670155 0.731986 0.798573 
0.749346 0.682759 0.620927 0.563853 0.511534 0.463971 0.421165 0.383115 0.349822 
0.321284 0.297503 0.278478 0.264209 0.254697 0.249941 0.249941 0.254697 0.264209 
0.278478 0.297503 0.321284 0.349822 0.383115 0.421165 0.463971 0.511534 0.563853 
0.620927 0.682759 0.749346 0.709631 0.643044 0.581213 0.524138 0.471819 0.424257 
0.381451 0.343401 0.310107 0.28157 0.257788 0.238763 0.224495 0.214982 0.210226 
0.210226 0.214982 0.224495 0.238763 0.257788 0.28157 0.310107 0.343401 0.381451 
0.424257 0.471819 0.524138 0.581213 0.643044 0.709631 0.679429 0.612842 0.551011 
0.493936 0.441617 0.394055 0.351249 0.313199 0.279905 0.251367 0.227586 0.208561 
0.194293 0.18478 0.180024 0.180024 0.18478 0.194293 0.208561 0.227586 0.251367 
0.279905 0.313199 0.351249 0.394055 0.441617 0.493936 0.551011 0.612842 0.679429 
0.65874 0.592152 0.530321 0.473246 0.420927 0.373365 0.330559 0.292509 0.259215 
0.230678 0.206897 0.187872 0.173603 0.16409 0.159334 0.159334 0.16409 0.173603 
0.187872 0.206897 0.230678 0.259215 0.292509 0.330559 0.373365 0.420927 0.473246 
0.530321 0.592152 0.65874 0.647562 0.580975 0.519144 0.462069 0.40975 0.362188 
0.319382 0.281332 0.248038 0.219501 0.195719 0.176694 0.162426 0.152913 0.148157 
0.148157 0.152913 0.162426 0.176694 0.195719 0.219501 0.248038 0.281332 0.319382 
0.362188 0.40975 0.462069 0.519144 0.580975 0.647562 0.645898 0.57931 0.517479 
0.460404 0.408086 0.360523 0.317717 0.279667 0.246373 0.217836 0.194055 0.17503 
0.160761 0.151249 0.146492 0.146492 0.151249 0.160761 0.17503 0.194055 0.217836 
0.246373 0.279667 0.317717 0.360523 0.408086 0.460404 0.517479 0.57931 0.645898 
0.653746 0.587158 0.525327 0.468252 0.415933 0.368371 0.325565 0.287515 0.254221 
0.225684 0.201902 0.182878 0.168609 0.159096 0.15434 0.15434 0.159096 0.168609 
0.182878 0.201902 0.225684 0.254221 0.287515 0.325565 0.368371 0.415933 0.468252 
0.525327 0.587158 0.653746 0.671106 0.604518 0.542687 0.485612 0.433294 0.385731 
0.342925 0.304875 0.271581 0.243044 0.219263 0.200238 0.185969 0.176457 0.1717 
0.1717 0.176457 0.185969 0.200238 0.219263 0.243044 0.271581 0.304875 0.342925 
0.385731 0.433294 0.485612 0.542687 0.604518 0.671106 0.697979 0.631391 0.56956 
0.512485 0.460166 0.412604 0.369798 0.331748 0.298454 0.269917 0.246136 0.227111 
0.212842 0.203329 0.198573 0.198573 0.203329 0.212842 0.227111 0.246136 0.269917 
0.298454 0.331748 0.369798 0.412604 0.460166 0.512485 0.56956 0.631391 0.697979 
0.734364 0.667776 0.605945 0.54887 0.496552 0.448989 0.406183 0.368133 0.334839 
0.306302 0.282521 0.263496 0.249227 0.239715 0.234958 0.234958 0.239715 0.249227 
0.263496 0.282521 0.306302 0.334839 0.368133 0.406183 0.448989 0.496552 0.54887 
0.605945 0.667776 0.734364 0.780262 0.713674 0.651843 0.594768 0.542449 0.494887 
0.452081 0.414031 0.380737 0.3522 0.328419 0.309394 0.295125 0.285612 0.280856 
0.280856 0.285612 0.295125 0.309394 0.328419 0.3522 0.380737 0.414031 0.452081 
0.494887 0.542449 0.594768 0.651843 0.713674 0.780262 0.835672 0.769084 0.707253 
0.650178 0.59786 0.550297 0.507491 0.469441 0.436147 0.40761 0.383829 0.364804 
0.350535 0.341023 0.336266 0.336266 0.341023 0.350535 0.364804 0.383829 0.40761 
0.436147 0.469441 0.507491 0.550297 0.59786 0.650178 0.707253 0.769084 0.835672 
0.900595 0.834007 0.772176 0.715101 0.662782 0.61522 0.572414 0.534364 0.50107 
0.472533 0.448751 0.429727 0.415458 0.405945 0.401189 0.401189 0.405945 0.415458 
0.429727 0.448751 0.472533 0.50107 0.534364 0.572414 0.61522 0.662782 0.715101 
0.772176 0.834007 0.900595 0.97503 0.908442 0.846611 0.789536 0.737218 0.689655 
0.646849 0.608799 0.575505 0.546968 0.523187 0.504162 0.489893 0.48038 0.475624 
0.475624 0.48038 0.489893 0.504162 0.523187 0.546968 0.575505 0.608799 0.646849 
0.689655 0.737218 0.789536 0.846611 0.908442 0.97503 1.05898 0.99239 0.930559 
0.873484 0.821165 0.773603 0.730797 0.692747 0.659453 0.630916 0.607134 0.588109 
0.573841 0.564328 0.559572 0.559572 0.564328 0.573841 0.588109 0.607134 0.630916 
0.659453 0.692747 0.730797 0.773603 0.821165 0.873484 0.930559 0.99239 1.05898 
1.15244 1.08585 1.02402 0.966944 0.914625 0.867063 0.824257 0.786207 0.752913 
0.724376 0.700595 0.68157 0.667301 0.657788 0.653032 0.653032 0.657788 0.667301 
0.68157 0.700595 0.724376 0.752913 0.786207 0.824257 0.867063 0.914625 0.966944 
1.02402 1.08585 1.15244 1.25541 1.18882 1.12699 1.06992 1.0176 0.970036 
0.927229 0.889179 0.855886 0.827348 0.803567 0.784542 0.770273 0.760761 0.756005 
0.756005 0.760761 0.770273 0.784542 0.803567 0.827348 0.855886 0.889179 0.927229 
0.970036 1.0176 1.06992 1.12699 1.18882 1.25541 1.3679 1.30131 1.23948 
1.1824 1.13008 1.08252 1.03971 1.00166 0.968371 0.939834 0.916052 0.897027 
0.882759 0.873246 0.86849 0.86849 0.873246 0.882759 0.897027 0.916052 0.939834 
0.968371 1.00166 1.03971 1.08252 1.13008 1.1824 1.23948 1.30131 1.3679 
1.48989 1.42331 1.36147 1.3044 1.25208 1.20452 1.16171 1.12366 1.09037 
1.06183 1.03805 1.01902 1.00476 0.995244 0.990488 0.990488 0.995244 1.00476 
1.01902 1.03805 1.06183 1.09037 1.12366 1.16171 1.20452 1.25208 1.3044 
1.36147 1.42331 1.48989 1.6214 1.55482 1.49298 1.43591 1.38359 1.33603 
1.29322 1.25517 1.22188 1.19334 1.16956 1.15053 1.13627 1.12675 1.122 
1.122 1.12675 1.13627 1.15053 1.16956 1.19334 1.22188 1.25517 1.29322 
1.33603 1.38359 1.43591 1.49298 1.55482 1.6214 1.76243 1.69584 1.63401 
1.57693 1.52461 1.47705 1.43424 1.3962 1.3629 1.33436 1.31058 1.29156 
1.27729 1.26778 1.26302 1.26302 1.26778 1.27729 1.29156 1.31058 1.33436 
1.3629 1.3962 1.43424 1.47705 1.52461 1.57693 1.63401 1.69584 1.76243 
1.50511 1.43853 1.37669 1.31962 1.2673 1.21974 1.17693 1.13888 1.10559 
1.07705 1.05327 1.03424 1.01998 1.01046 1.00571 1.00571 1.01046 1.01998 
1.03424 1.05327 1.07705 1.10559 1.13888 1.17693 1.21974 1.2673 1.31962 
1.37669 1.43853 1.50511 1.38026 1.31367 1.25184 1.19477 1.14245 1.09489 
1.05208 1.01403 0.980737 0.9522 0.928419 0.909394 0.895125 0.885612 0.880856 
0.880856 0.885612 0.895125 0.909394 0.928419 0.9522 0.980737 1.01403 1.05208 
1.09489 1.14245 1.19477 1.25184 1.31367 1.38026 1.26492 1.19834 1.1365 
1.07943 1.02711 0.979548 0.936742 0.898692 0.865398 0.836861 0.81308 0.794055 
0.779786 0.770273 0.765517 0.765517 0.770273 0.779786 0.794055 0.81308 0.836861 
0.865398 0.898692 0.936742 0.979548 1.02711 1.07943 1.1365 1.19834 1.26492 
1.1591 1.09251 1.03068 0.973603 0.921284 0.873722 0.830916 0.792866 0.759572 
0.731035 0.707253 0.688228 0.67396 0.664447 0.659691 0.659691 0.664447 0.67396 
0.688228 0.707253 0.731035 0.759572 0.792866 0.830916 0.873722 0.921284 0.973603 
1.03068 1.09251 1.1591 1.06278 0.996195 0.934364 0.877289 0.82497 0.777408 
0.734602 0.696552 0.663258 0.634721 0.610939 0.591914 0.577646 0.568133 0.563377 
0.563377 0.568133 0.577646 0.591914 0.610939 0.634721 0.663258 0.696552 0.734602 
0.777408 0.82497 0.877289 0.934364 0.996195 1.06278 0.975981 0.909394 0.847562 
0.790488 0.738169 0.690606 0.6478 0.60975 0.576457 0.547919 0.524138 0.505113 
0.490844 0.481332 0.476575 0.476575 0.481332 0.490844 0.505113 0.524138 0.547919 
0.576457 0.60975 0.6478 0.690606 0.738169 0.790488 0.847562 0.909394 0.975981 
0.898692 0.832105 0.770274 0.713199 0.66088 0.613317 0.570511 0.532461 0.499168 
0.47063 0.446849 0.427824 0.413555 0.404043 0.399287 0.399287 0.404043 0.413555 
0.427824 0.446849 0.47063 0.499168 0.532461 0.570511 0.613317 0.66088 0.713199 
0.770274 0.832105 0.898692 0.830916 0.764328 0.702497 0.645422 0.593103 0.545541 
0.502735 0.464685 0.431391 0.402854 0.379073 0.360048 0.345779 0.336266 0.33151 
0.33151 0.336266 0.345779 0.360048 0.379073 0.402854 0.431391 0.464685 0.502735 
0.545541 0.593103 0.645422 0.702497 0.764328 0.830916 0.772652 0.706064 0.644233 
0.587158 0.534839 0.487277 0.444471 0.406421 0.373127 0.34459 0.320809 0.301784 
0.287515 0.278002 0.273246 0.273246 0.278002 0.287515 0.301784 0.320809 0.34459 
0.373127 0.406421 0.444471 0.487277 0.534839 0.587158 0.644233 0.706064 0.772652 
0.7239 0.657313 0.595482 0.538407 0.486088 0.438526 0.395719 0.357669 0.324376 
0.295838 0.272057 0.253032 0.238763 0.229251 0.224495 0.224495 0.229251 0.238763 
0.253032 0.272057 0.295838 0.324376 0.357669 0.395719 0.438526 0.486088 0.538407 
0.595482 0.657313 0.7239 0.684661 0.618074 0.556243 0.499168 0.446849 0.399287 
0.35648 0.31843 0.285137 0.256599 0.232818 0.213793 0.199524 0.190012 0.185256 
0.185256 0.190012 0.199524 0.213793 0.232818 0.256599 0.285137 0.31843 0.35648 
0.399287 0.446849 0.499168 0.556243 0.618074 0.684661 0.654935 0.588347 0.526516 
0.469441 0.417122 0.36956 0.326754 0.288704 0.25541 0.226873 0.203092 0.184067 
0.169798 0.160285 0.155529 0.155529 0.160285 0.169798 0.184067 0.203092 0.226873 
0.25541 0.288704 0.326754 0.36956 0.417122 0.469441 0.526516 0.588347 0.654935 
0.634721 0.568133 0.506302 0.449227 0.396908 0.349346 0.30654 0.26849 0.235196 
0.206659 0.182878 0.163853 0.149584 0.140071 0.135315 0.135315 0.140071 0.149584 
0.163853 0.182878 0.206659 0.235196 0.26849 0.30654 0.349346 0.396908 0.449227 
0.506302 0.568133 0.634721 0.624019 0.557432 0.4956 0.438526 0.386207 0.338644 
0.295838 0.257788 0.224495 0.195957 0.172176 0.153151 0.138882 0.12937 0.124614 
0.124614 0.12937 0.138882 0.153151 0.172176 0.195957 0.224495 0.257788 0.295838 
0.338644 0.386207 0.438526 0.4956 0.557432 0.624019 0.62283 0.556243 0.494411 
0.437337 0.385018 0.337455 0.294649 0.256599 0.223306 0.194768 0.170987 0.151962 
0.137693 0.128181 0.123425 0.123425 0.128181 0.137693 0.151962 0.170987 0.194768 
0.223306 0.256599 0.294649 0.337455 0.385018 0.437337 0.494411 0.556243 0.62283 
0.631153 0.564566 0.502735 0.44566 0.393341 0.345779 0.302973 0.264923 0.231629 
0.203092 0.17931 0.160285 0.146017 0.136504 0.131748 0.131748 0.136504 0.146017 
0.160285 0.17931 0.203092 0.231629 0.264923 0.302973 0.345779 0.393341 0.44566 
0.502735 0.564566 0.631153 0.648989 0.582402 0.520571 0.463496 0.411177 0.363615 
0.320809 0.282759 0.249465 0.220927 0.197146 0.178121 0.163853 0.15434 0.149584 
0.149584 0.15434 0.163853 0.178121 0.197146 0.220927 0.249465 0.282759 0.320809 
0.363615 0.411177 0.463496 0.520571 0.582402 0.648989 0.676338 0.60975 0.547919 
0.490844 0.438526 0.390963 0.348157 0.310107 0.276813 0.248276 0.224495 0.20547 
0.191201 0.181688 0.176932 0.176932 0.181688 0.191201 0.20547 0.224495 0.248276 
0.276813 0.310107 0.348157 0.390963 0.438526 0.490844 0.547919 0.60975 0.676338 
0.713199 0.646611 0.58478 0.527705 0.475386 0.427824 0.385018 0.346968 0.313674 
0.285137 0.261356 0.242331 0.228062 0.218549 0.213793 0.213793 0.218549 0.228062 
0.242331 0.261356 0.285137 0.313674 0.346968 0.385018 0.427824 0.475386 0.527705 
0.58478 0.646611 0.713199 0.759572 0.692985 0.631153 0.574079 0.52176 0.474197 
0.431391 0.393341 0.360048 0.33151 0.307729 0.288704 0.274435 0.264923 0.260166 
0.260166 0.264923 0.274435 0.288704 0.307729 0.33151 0.360048 0.393341 0.431391 
0.474197 0.52176 0.574079 0.631153 0.692985 0.759572 0.815458 0.74887 0.687039 
0.629964 0.577646 0.530083 0.487277 0.449227 0.415933 0.387396 0.363615 0.34459 
0.330321 0.320809 0.316052 0.316052 0.320809 0.330321 0.34459 0.363615 0.387396 
0.415933 0.449227 0.487277 0.530083 0.577646 0.629964 0.687039 0.74887 0.815458 
0.880856 0.814269 0.752438 0.695363 0.643044 0.595482 0.552675 0.514625 0.481332 
0.452794 0.429013 0.409988 0.395719 0.386207 0.381451 0.381451 0.386207 0.395719 
0.409988 0.429013 0.452794 0.481332 0.514625 0.552675 0.595482 0.643044 0.695363 
0.752438 0.814269 0.880856 0.955767 0.88918 0.827348 0.770273 0.717955 0.670392 
0.627586 0.589536 0.556243 0.527705 0.503924 0.484899 0.47063 0.461118 0.456361 
0.456361 0.461118 0.47063 0.484899 0.503924 0.527705 0.556243 0.589536 0.627586 