# vtk DataFile Version 3.0
vtk output
ASCII
DATASET POLYDATA
POINTS 686 float
5 7.82322 10.9294 5 7.80734 11.0245 5 7.93205 11.0425 
5 7.93412 10.9257 5 7.7282 10.8379 5 7.93308 10.788 
5 7.67859 10.99 5 7.66053 11.123 5 7.79547 11.136 
5 7.91347 11.1466 5 8.07322 11.0732 5 8.04809 10.9431 
5 8.01755 11.158 5 8.03786 10.8514 5 7.65901 10.6508 
5 7.8705 10.6089 5 7.54704 10.8316 5 7.51824 10.9746 
5 7.39469 10.6822 5 8.13242 10.8231 5 8.09469 10.7162 
5 8.06323 10.5667 5 7.52214 11.1159 5 7.64592 11.25 
5 7.80052 11.25 5 7.38766 11.25 5 7.90878 11.25 
5 8 11.25 5 8.15798 11.0176 5 8.14712 10.922 
2.5 8.15432 11.019 2.5 8.07324 11.0732 5 8.15434 11.019 
2.5 8.01903 11.1543 5 8.01902 11.1543 5 7.44218 10.3424 
5 7.64261 10.4744 5 7.82664 10.4299 5 8.03769 10.3933 
5 7.32515 10.9611 5 7 10.625 5 7 10.9375 
5 7 10.3125 5 8.25 10.8026 5 8.25 10.6871 
5 8.25 10.9045 5 8.25 10.5485 5 8.25 10.3763 
5 7.67156 11.3874 5 7.8089 11.3764 5 7.53983 11.3935 
5 7.90972 11.3537 5 7 11.25 5 7.44943 11.7066 
5 7.56029 11.5433 5 7 11.6875 5 8 11.3489 
2.5 8 11.25 0 8 12.5 5 8 12.5 
0 8 11.25 5 8.25 11 0 8.25 11 
0 8.1543 11.019 2.5 8.25 11 0 8.07322 11.0732 
0 8.01904 11.1543 5 7.75573 10.2431 5 7.41786 10 
5 7.74324 10 5 7 10 5 8.01086 10.2002 
5 8.25 10.1644 5 7.6916 11.5296 5 7.85382 11.5144 
5 7.92118 11.4397 5 8 11.4509 5 7.6677 11.8951 
5 7.73456 11.7906 5 7.68075 11.6735 5 7.40022 12.1904 
5 7.64784 12.1371 5 7 12.125 0 7.96192 12.6914 
2.5 7.96192 12.6914 2.5 8 12.5 5 7.84497 12.3142 
5 7.85639 12.4875 5 8 12.3065 5 7.86211 12.6189 
5 7.96489 12.684 5 7.96192 12.6914 5 8.25 9.923 
5 11.25 11 5 11.25 9 5 16 11 
0 16 11 5 8 10 5 0 10 
5 0 13 5 7 13 5 7.84745 11.667 
5 8 11.5591 5 8 11.6771 5 7.83294 12.1302 
5 7.83896 11.9463 5 7.85524 11.8031 5 7.55096 12.3619 
5 7.69057 12.3325 5 7.35291 12.6213 5 7.5621 12.5627 
5 7 12.5625 0 7.85355 12.8536 2.5 7.85355 12.8536 
5 7.85355 12.8536 5 7.71852 12.5169 5 8 12.1233 
5 7.76505 12.6851 5 16 9 7 11.25 9 
7 16 9 7 8 10 0 16 9 
7 0 10 0 0 13 0 0 10 
5 7.5 13 0 7.5 13 5 7.30926 13 
5 8 11.8086 5 8 11.9567 5 7.49298 12.7907 
5 7.62604 12.7508 0 7.6914 12.9619 2.5 7.6914 12.9619 
5 7.6914 12.9619 5 7.68405 12.9649 5 24 9 
5 24 8 5 19.75 8 0 24 9 
7 19.75 8 0 -2 10 7 -2 10 
2.5 7.5 13 0 24 8 7 24 8 
7 26 8 0 26 8 0 0 -11 
0 0 -8 5 0 -8 5 0 -11 
5 24 -11 0 24 -11 0 -2 -8 
5 -2 -8 5 8 -8 5 8 -11 
5 19.75 -11 5 19.75 -10 5 24 -10 
0 24 -10 7 -2 -8 7 8 -8 
5 11.25 -9 5 11.25 -11 7 11.25 -9 
5 16 -11 5 16 -9 7 16 -9 
7 19.75 -10 7 26 -10 5 26 -10 
0 26 -10 1.91748 7.67834 -3.51045 1.39183 4.80584 -3.75004 
3.10004 4.74612 -2.5278 3.71933 8.2518 -1.47193 2.28036 11.9291 -3.28633 
0 6.40852 -4 0 9.52824 -4 0 3.7104 -4 
1.00023 2.98374 -3.87292 1.99481 2.63411 -3.46709 3.99902 4.81728 0.08855 
2.98987 2.17564 -2.65719 3.74575 2.45304 -1.40334 3.6737 8.27221 1.58239 
3.99929 11.9788 0.07526 3.70789 15.7024 -1.50051 1.9216 16.2623 -3.5082 
0 11.9689 -4 0 14.3512 -4 0 2.06879 -4 
0.48601 2.25066 -3.97036 1.03264 1.61027 -3.86441 1.64176 1.01027 -3.64755 
2.37715 1.13073 -3.21701 3.01126 4.7799 2.63293 3.9997 2.15958 0.04896 
3.70922 2.45004 1.49723 2.91683 0.91806 -2.73717 3.38248 1.09831 -2.13514 
3.72047 0.97203 -1.46904 3.93264 1.103 -0.73102 1.85925 7.75999 3.54164 
2.26005 12.0455 3.30033 3.68837 15.7573 1.54788 3.05144 19.2212 -2.58625 
4 19.1687 0.00563 1.3639 19.1697 -3.76029 0 17.5542 -4 
0 1.24817 -4 0.35215 1.2147 -3.98447 0.60895 0.58968 -3.95338 
1.09375 0.62285 -3.84756 1.36124 0.41025 -3.76125 1.6086 0.31642 -3.6623 
2.01162 0.35229 -3.45737 2.34331 0.45551 -3.24174 2.63225 0.38019 -3.01185 
1.3206 4.94069 3.77571 2.93365 2.16411 2.71913 1.91758 2.60035 3.5104 
3.99992 0.92061 0.02526 3.92189 1.10123 0.78663 3.70058 0.96959 1.51845 
3.351 1.09403 2.18422 2.89599 0.38569 -2.75921 3.15088 0.35872 -2.46413 
3.37306 0.45257 -2.15 3.5589 0.39074 -1.82599 3.71344 0.41132 -1.48674 
3.84224 0.37865 -1.1123 3.93218 0.46215 -0.73344 3.98386 0.3871 -0.35896 
0 6.58748 4 0 9.66416 4 1.88377 16.3456 3.52866 
0 12.0556 4 0 14.4989 4 3.06558 19.3026 2.56948 
2.96254 21.8143 -2.68763 1.97163 21.3626 -3.48032 3.72906 21.5439 -1.4471 
4 21.8263 -0.0017 3.73117 21.5642 1.44167 0 20.302 -4 
0.98341 21.0045 -3.87723 0 0.49795 -4 0.43738 -0.14843 -3.97602 
0.84723 0.0608 -3.90925 1.14389 0.14871 -3.83295 1.37112 -0.02328 -3.75766 
1.7044 -0.23448 -3.6187 2.0597 -0.23949 -3.42894 2.36856 -0.03336 -3.22334 
2.62705 -0.0838 -3.01639 2.88931 -0.13097 -2.7662 0.80755 2.87316 3.91763 
0 4.14518 4 2.88114 0.91095 2.77471 2.33539 1.11346 3.24745 
1.59742 0.95017 3.66719 0.99331 1.51146 3.87471 3.99996 0.39629 0.01684 
3.97856 0.36908 0.41355 3.91939 0.46082 0.79897 3.82615 0.3954 1.16644 
3.69955 0.41122 1.52095 3.53159 0.37402 1.87826 3.33397 0.45245 2.21013 
3.11234 0.37576 2.51263 3.17242 -0.19007 -2.43634 3.39041 -0.0149 -2.12252 
3.55635 -0.06742 -1.83094 3.70946 -0.11404 -1.49663 3.85236 -0.17518 -1.07674 
3.93843 -0.00474 -0.69915 3.98352 -0.06234 -0.36277 3.99999 -0.11338 0.00637 
1.37297 19.2307 3.75698 0 17.6266 4 2.97043 21.8482 2.67891 
1.97903 21.3942 3.47613 2.91706 23.0854 -2.73692 2.36484 22.8705 -3.22607 
3.37648 22.8891 -2.14462 1.62708 22.9996 -3.65412 1.03614 22.3695 -3.86347 
3.71028 23.0214 -1.4946 3.92467 22.8842 -0.77261 3.9999 23.0778 -0.02841 
3.93176 22.8918 0.73573 3.72154 23.0373 1.46633 3.38141 22.9046 2.13684 
0.49282 21.7568 -3.96953 0 21.9979 -4 0 -0.45165 -4 
0.45204 -0.84639 -3.97438 0.75907 -0.48267 -3.92732 1.06326 -0.32748 -3.8561 
1.35017 -0.49395 -3.76524 1.56772 -0.81885 -3.67998 1.95131 -0.75918 -3.49176 
2.25846 -0.53158 -3.30142 2.61278 -0.56887 -3.02876 2.87334 -0.66995 -2.78279 
3.09024 -0.6604 -2.53977 0.55744 1.91642 3.96097 0 2.22891 4 
2.86686 0.38407 2.78947 2.58746 0.37705 3.05042 2.29433 0.48464 3.27659 
1.97067 0.36491 3.48087 1.566 0.26212 3.68071 1.05261 0.58021 3.85902 
1.31334 0.33946 3.77825 0.43313 1.32813 3.97648 0.60453 0.6699 3.95406 
3.97433 -0.17552 0.45245 3.91176 -0.0051 0.83557 3.82652 -0.06063 1.16522 
3.70304 -0.11107 1.51246 3.5115 -0.17654 1.91556 3.31181 -0.00981 2.2432 
3.11122 -0.06817 2.51402 2.87017 -0.11266 2.78605 3.31205 -0.49745 -2.24284 
3.54448 -0.54599 -1.85383 3.69991 -0.6572 -1.52008 3.81268 -0.64663 -1.20974 
3.9109 -0.48582 -0.83958 3.98089 -0.53487 -0.39052 3.99995 -0.64705 -0.01926 
3.98788 -0.64025 0.3112 0.98998 21.028 3.87556 0 20.3196 4 
2.91935 23.0975 2.73448 2.37652 22.8746 3.21747 1.64466 23.007 3.64624 
1.0407 22.3613 3.86225 2.93841 23.7255 -2.71399 2.62782 23.6497 -3.01572 
3.19361 23.5567 -2.4085 2.32791 23.5444 -3.25282 2.00238 23.6513 -3.46272 
3.37249 23.521 -2.15088 3.55322 23.5977 -1.83702 1.07435 23.3651 -3.85302 
1.59088 23.6944 -3.67003 1.34469 23.5956 -3.7672 0.42652 22.6873 -3.9772 
0.61139 23.3131 -3.953 3.70518 23.5881 -1.50718 3.83583 23.6126 -1.13418 
3.92319 23.5137 -0.78014 3.97383 23.5227 -0.45678 3.99915 23.683 -0.08227 
3.98173 23.6492 0.3819 3.92936 23.5206 0.74841 3.85484 23.5172 1.06781 
3.73503 23.6724 1.43162 3.55701 23.6312 1.82966 3.37522 23.5309 2.1466 
3.19606 23.5571 2.40524 0 23.2408 -4 0 -1.4497 -4 
0.52811 -1.66823 -3.96498 1.07292 -1.10687 -3.85342 1.78369 -1.62004 -3.58029 
2.33715 -1.17613 -3.24619 2.91025 -1.38515 -2.74416 3.35142 -1.10734 -2.18357 
0 0.81573 4 2.5427 -0.14419 3.08783 2.29095 0.08259 3.27896 
2.04025 -0.18598 3.44055 1.6756 -0.24558 3.63213 1.32406 -0.07473 3.7745 
1.09366 0.11069 3.84758 0.7901 0.11412 3.92119 0.39869 0.12537 3.98008 
3.93889 -0.48438 0.69651 3.8347 -0.53622 1.13801 3.71222 -0.65148 1.48977 
3.57735 -0.64249 1.78958 3.38661 -0.48683 2.12859 3.13069 -0.53105 2.48974 
2.88925 -0.63887 2.76626 2.65143 -0.62659 2.99499 3.71158 -1.36738 -1.49136 
3.92279 -1.09408 -0.78213 4 -1.34705 -0.00312 3.92995 -1.09117 0.7453 
0.49487 21.7358 3.96927 0 21.9532 4 2.93809 23.7239 2.71434 
2.61201 23.6458 3.02942 2.33148 23.5006 3.25026 2.05194 23.5211 3.43359 
1.65127 23.7758 3.64326 1.35154 23.6244 3.76475 1.07735 23.3463 3.85218 
0.6194 23.2509 3.95175 0.42807 22.6343 3.97703 2.84148 24.2179 -2.81531 
3.12847 24.1074 -2.49252 2.61198 24.1159 -3.02945 2.36155 24.042 -3.22848 
3.38565 23.9813 -2.13011 2.05766 24.2458 -3.43017 1.70567 24.2418 -3.6181 
3.55149 24.0535 -1.84037 3.70467 24.1096 -1.50845 0.79752 23.9123 -3.91969 
1.11905 23.8506 -3.84028 1.35843 24.0304 -3.76227 0.38863 23.9347 -3.98108 
3.84802 24.1733 -1.09212 3.93449 23.9749 -0.72096 3.98708 23.9762 -0.32121 
3.99968 24.1954 0.05066 3.97447 24.2026 0.4512 3.91605 23.9857 0.81522 
3.81339 23.974 1.20751 3.6828 24.1603 1.56109 3.54257 24.0859 1.85747 
3.38403 23.9862 2.13268 3.12601 24.0964 2.49561 0 24.3368 -4 
0 -2.85941 -4 1.12497 -2.64827 -3.83855 1.86409 -2.61933 -3.53909 
2.44919 -2.36751 -3.16251 2.9571 -2.35459 -2.69361 3.39583 -2.27834 -2.11384 
0 -0.2654 4 2.29815 -0.43655 3.27391 1.95606 -0.71674 3.4891 
1.54949 -0.82283 3.68769 1.3122 -0.51884 3.77864 1.00488 -0.34427 3.87172 
0.59242 -0.41599 3.95589 3.70953 -1.35634 1.49646 3.36409 -1.08533 2.16399 
2.90685 -1.3059 2.74777 2.35752 -1.09709 3.23142 3.72692 -2.41852 -1.45261 
3.93224 -2.2631 -0.73315 3.99998 -2.31918 0.01383 3.9251 -2.25836 0.77044 
0 23.1639 4 2.82709 24.2363 2.82976 2.53218 24.1724 3.09646 
2.30196 23.8846 3.27123 1.97484 24.0976 3.4785 1.61753 24.3426 3.65836 
1.3338 24.0833 3.77107 1.10931 23.8492 3.8431 0.8009 23.8309 3.919 
0.4051 23.8207 3.97943 2.6063 24.5715 -3.03434 2.86386 24.6845 -2.79255 
3.07138 24.6592 -2.56254 3.2979 24.4846 -2.26359 2.25703 24.5429 -3.30239 
3.53948 24.5362 -1.86335 1.96355 24.7597 -3.48489 1.36137 24.4979 -3.76121 
1.60336 24.833 -3.66459 3.69826 24.6566 -1.52411 3.80947 24.6505 -1.21982 
0.5708 24.617 -3.95906 1.04056 24.3528 -3.86228 3.9086 24.4935 -0.8502 
3.98166 24.5314 -0.38262 4 24.6669 -0.00273 3.98726 24.6636 0.31896 
3.93958 24.4998 0.6926 3.83091 24.5345 1.15072 3.69792 24.6506 1.52492 
3.53192 24.5492 1.87764 3.29464 24.4664 2.26834 3.05695 24.6362 2.57975 
0.21368 24.9074 -3.99429 0 24.936 -4 0.54517 -3.49606 -3.96268 
[...]
CELL_DATA 928
POINT_DATA 686
FIELD FieldData 20
thickness1 1 686 float
1 1 1 1 1 1 1 1 1 
1 1 1 1 1 1 1 1 1 
1 1 1 1 1 1 1 1 1 
1 1 1 1 1 1 1 1 1 
1 1 1 1 1 1 1 1 1 
1 1 1 1 1 1 1 1 1 
1 1 1 1 1 1 1 1 1 
1 1 1 1 1 1 1 1 1 
1 1 1 1 1 1 1 1 1 
1 1 1 1 1 1 1 1 1 
1 1 1 1 1 1 1 1 1 
1 1 1 1 1 1 1 1 1 
1 1 1 1 1 1 1 1 1 
1 1 1 1 1 1 1 1 1 
1 1 1 1 1 1 1 1 1 
1 1 1 1 1 1 1 1 1 
1 1 1 1 1 1 1 1 1 
1 1 1 1 1 1 1 1 1 
1 1 1 1 1 1 1 1 1 
1 1 1 1 1 1 1 1 1 
1 1 1 1 1 1 1 1 1 
1 1 1 1 1 1 1 1 1 
1 1 1 1 1 1 1 1 1 
1 1 1 1 1 1 1 1 1 
1 1 1 1 1 1 1 1 1 
1 1 1 1 1 1 1 1 1 
1 1 1 1 1 1 1 1 1 
1 1 1 1 1 1 1 1 1 
1 1 1 1 1 1 1 1 1 
1 1 1 1 1 1 1 1 1 
1 1 1 1 1 1 1 1 1 
1 1 1 1 1 1 1 1 1 
1 1 1 1 1 1 1 1 1 
1 1 1 1 1 1 1 1 1 
1 1 1 1 1 1 1 1 1 
1 1 1 1 1 1 1 1 1 
1 1 1 1 1 1 1 1 1 
1 1 1 1 1 1 1 1 1 
1 1 1 1 1 1 1 1 1 
1 1 1 1 1 1 1 1 1 
1 1 1 1 1 1 1 1 1 
1 1 1 1 1 1 1 1 1 
1 1 1 1 1 1 1 1 1 
1 1 1 1 1 1 1 1 1 
1 1 1 1 1 1 1 1 1 
1 1 1 1 1 1 1 1 1 
1 1 1 1 1 1 1 1 1 
1 1 1 1 1 1 1 1 1 
1 1 1 1 1 1 1 1 1 
1 1 1 1 1 1 1 1 1 
1 1 1 1 1 1 1 1 1 
1 1 1 1 1 1 1 1 1 
1 1 1 1 1 1 1 1 1 
1 1 1 1 1 1 1 1 1 
1 1 1 1 1 1 1 1 1 
1 1 1 1 1 1 1 1 1 
1 1 1 1 1 1 1 1 1 
1 1 1 1 1 1 1 1 1 
1 1 1 1 1 1 1 1 1 
1 1 1 1 1 1 1 1 1 
1 1 1 1 1 1 1 1 1 
1 1 1 1 1 1 1 1 1 
1 1 1 1 1 1 1 1 1 
1 1 1 1 1 1 1 1 1 
1 1 1 1 1 1 1 1 1 
1 1 1 1 1 1 1 1 1 
1 1 1 1 1 1 1 1 1 
1 1 1 1 1 1 1 1 1 
1 1 1 1 1 1 1 1 1 
1 1 1 1 1 1 1 1 1 
1 1 1 1 1 1 1 1 1 
1 1 1 1 1 1 1 1 1 
1 1 1 1 1 1 1 1 1 
1 1 1 1 1 1 1 1 1 
1 1 1 1 1 1 1 1 1 
1 1 1 1 1 1 1 1 1 
1 1 
displacement1 3 686 float
0 0 0 0 0 0 0 0 0 
0 0 0 0 0 0 0 0 0 
0 0 0 0 0 0 0 0 0 
0 0 0 0 0 0 0 0 0 
0 0 0 0 0 0 0 0 0 
0 0 0 0 0 0 0 0 0 
0 0 0 0 0 0 0 0 0 
0 0 0 0 0 0 0 0 0 
0 0 0 0 0 0 0 0 0 
0 0 0 0 0 0 0 0 0 
0 0 0 0 0 0 0 0 0 
0 0 0 0 0 0 0 0 0 
0 0 0 0 0 0 0 0 0 
0 0 0 0 0 0 0 0 0 
0 0 0 0 0 0 0 0 0 
0 0 0 0 0 0 0 0 0 
0 0 0 0 0 0 0 0 0 
0 0 0 0 0 0 0 0 0 
0 0 0 0 0 0 0 0 0 
0 0 0 0 0 0 0 0 0 
0 0 0 0 0 0 0 0 0 
0 0 0 0 0 0 0 0 0 
0 0 0 0 0 0 0 0 0 
0 0 0 0 0 0 0 0 0 
0 0 0 0 0 0 0 0 0 
0 0 0 0 0 0 0 0 0 
0 0 0 0 0 0 0 0 0 
0 0 0 0 0 0 0 0 0 
0 0 0 0 0 0 0 0 0 
0 0 0 0 0 0 0 0 0 
0 0 0 0 0 0 0 0 0 
0 0 0 0 0 0 0 0 0 
0 0 0 0 0 0 0 0 0 
0 0 0 0 0 0 0 0 0 
0 0 0 0 0 0 0 0 0 
0 0 0 0 0 0 0 0 0 
0 0 0 0 0 0 0 0 0 
0 0 0 0 0 0 0 0 0 
0 0 0 0 0 0 0 0 0 
0 0 0 0 0 0 0 0 0 
0 0 0 0 0 0 0 0 0 
0 0 0 0 0 0 0 0 0 
0 0 0 0 0 0 0 0 0 
0 0 0 0 0 0 0 0 0 
0 0 0 0 0 0 0 0 0 
0 0 0 0 0 0 0 0 0 
0 0 0 0 0 0 0 0 0 
0 0 0 0 0 0 0 0 0 
0 0 0 0 0 0 0 0 0 
0 0 0 0 0 0 0 0 0 
0 0 0 0 0 0 0 0 0 
0 0 0 0 0 0 0 0 0 
0 0 0 0 0 0 0 0 0 
0 0 0 0 0 0 0 0 0 
0 0 0 0 0 0 0 0 0 
0 0 0 0 0 0 0 0 0 
0 0 0 0 0 0 0 0 0 
0 0 0 0 0 0 0 0 0 
0 0 0 0 0 0 0 0 0 
0 0 0 0 0 0 0 0 0 
0 0 0 0 0 0 0 0 0 
0 0 0 0 0 0 0 0 0 
0 0 0 0 0 0 0 0 0 
0 0 0 0 0 0 0 0 0 
0 0 0 0 0 0 0 0 0 
0 0 0 0 0 0 0 0 0 
0 0 0 0 0 0 0 0 0 
0 0 0 0 0 0 0 0 0 
0 0 0 0 0 0 0 0 0 
0 0 0 0 0 0 0 0 0 
0 0 0 0 0 0 0 0 0 
0 0 0 0 0 0 0 0 0 
0 0 0 0 0 0 0 0 0 
0 0 0 0 0 0 0 0 0 
0 0 0 0 0 0 0 0 0 
0 0 0 0 0 0 0 0 0 
0 0 0 0 0 0 0 0 0 
0 0 0 0 0 0 0 0 0 
0 0 0 0 0 0 0 0 0 
0 0 0 0 0 0 0 0 0 
0 0 0 0 0 0 0 0 0 
0 0 0 0 0 0 0 0 0 
0 0 0 0 0 0 0 0 0 
0 0 0 0 0 0 0 0 0 
0 0 0 0 0 0 0 0 0 
0 0 0 0 0 0 0 0 0 
0 0 0 0 0 0 0 0 0 
0 0 0 0 0 0 0 0 0 
0 0 0 0 0 0 0 0 0 
0 0 0 0 0 0 0 0 0 
0 0 0 0 0 0 0 0 0 
0 0 0 0 0 0 0 0 0 
0 0 0 0 0 0 0 0 0 
0 0 0 0 0 0 0 0 0 
0 0 0 0 0 0 0 0 0 
0 0 0 0 0 0 0 0 0 
0 0 0 0 0 0 0 0 0 
0 0 0 0 0 0 0 0 0 
0 0 0 0 0 0 0 0 0 
0 0 0 0 0 0 0 0 0 
0 0 0 0 0 0 0 0 0 
0 0 0 0 0 0 0 0 0 
0 0 0 0 0 0 0 0 0 
0 0 0 0 0 0 0 0 0 
0 0 0 0 0 0 0 0 0 
0 0 0 0 0 0 0 0 0 
0 0 0 0 0 0 0 0 0 
0 0 0 0 0 0 0 0 0 
0 0 0 0 0 0 0 0 0 
0 0 0 0 0 0 0 0 0 
0 0 0 0 0 0 0 0 0 
0 0 0 0 0 0 0 0 0 
0 0 0 0 0 0 0 0 0 
0 0 0 0 0 0 0 0 0 
0 0 0 0 0 0 0 0 0 
0 0 0 0 0 0 0 0 0 
0 0 0 0 0 0 0 0 0 
0 0 0 0 0 0 0 0 0 
0 0 0 0 0 0 0 0 0 
0 0 0 0 0 0 0 0 0 
0 0 0 0 0 0 0 0 0 
0 0 0 0 0 0 0 0 0 
0 0 0 0 0 0 0 0 0 
0 0 0 0 0 0 0 0 0 
0 0 0 0 0 0 0 0 0 
0 0 0 0 0 0 0 0 0 
0 0 0 0 0 0 0 0 0 
0 0 0 0 0 0 0 0 0 
0 0 0 0 0 0 0 0 0 
0 0 0 0 0 0 0 0 0 
0 0 0 0 0 0 0 0 0 
0 0 0 0 0 0 0 0 0 
0 0 0 0 0 0 0 0 0 
0 0 0 0 0 0 0 0 0 
0 0 0 0 0 0 0 0 0 
0 0 0 0 0 0 0 0 0 
0 0 0 0 0 0 0 0 0 
0 0 0 0 0 0 0 0 0 
0 0 0 0 0 0 0 0 0 
0 0 0 0 0 0 0 0 0 
0 0 0 0 0 0 0 0 0 
0 0 0 0 0 0 0 0 0 
0 0 0 0 0 0 0 0 0 
0 0 0 0 0 0 0 0 0 
0 0 0 0 0 0 0 0 0 
0 0 0 0 0 0 0 0 0 
0 0 0 0 0 0 0 0 0 
0 0 0 0 0 0 0 0 0 
0 0 0 0 0 0 0 0 0 
0 0 0 0 0 0 0 0 0 
0 0 0 0 0 0 0 0 0 
0 0 0 0 0 0 0 0 0 
0 0 0 0 0 0 0 0 0 
0 0 0 0 0 0 0 0 0 
0 0 0 0 0 0 0 0 0 
0 0 0 0 0 0 0 0 0 
0 0 0 0 0 0 0 0 0 
0 0 0 0 0 0 0 0 0 
0 0 0 0 0 0 0 0 0 
0 0 0 0 0 0 0 0 0 
0 0 0 0 0 0 0 0 0 
0 0 0 0 0 0 0 0 0 
0 0 0 0 0 0 0 0 0 
0 0 0 0 0 0 0 0 0 
0 0 0 0 0 0 0 0 0 
0 0 0 0 0 0 0 0 0 
0 0 0 0 0 0 0 0 0 
0 0 0 0 0 0 0 0 0 
0 0 0 0 0 0 0 0 0 
0 0 0 0 0 0 0 0 0 
0 0 0 0 0 0 0 0 0 
0 0 0 0 0 0 0 0 0 
0 0 0 0 0 0 0 0 0 
0 0 0 0 0 0 0 0 0 
0 0 0 0 0 0 0 0 0 
0 0 0 0 0 0 0 0 0 
0 0 0 0 0 0 0 0 0 
0 0 0 0 0 0 0 0 0 
0 0 0 0 0 0 0 0 0 
0 0 0 0 0 0 0 0 0 
0 0 0 0 0 0 0 0 0 
0 0 0 0 0 0 0 0 0 
0 0 0 0 0 0 0 0 0 
0 0 0 0 0 0 0 0 0 
0 0 0 0 0 0 0 0 0 
0 0 0 0 0 0 0 0 0 
0 0 0 0 0 0 0 0 0 
0 0 0 0 0 0 0 0 0 
0 0 0 0 0 0 0 0 0 
0 0 0 0 0 0 0 0 0 
0 0 0 0 0 0 0 0 0 
0 0 0 0 0 0 0 0 0 
0 0 0 0 0 0 0 0 0 
0 0 0 0 0 0 0 0 0 
0 0 0 0 0 0 0 0 0 
0 0 0 0 0 0 0 0 0 
0 0 0 0 0 0 0 0 0 
0 0 0 0 0 0 0 0 0 
0 0 0 0 0 0 0 0 0 
0 0 0 0 0 0 0 0 0 
0 0 0 0 0 0 0 0 0 
0 0 0 0 0 0 0 0 0 
0 0 0 0 0 0 0 0 0 
0 0 0 0 0 0 0 0 0 
0 0 0 0 0 0 0 0 0 
0 0 0 0 0 0 0 0 0 
0 0 0 0 0 0 0 0 0 
0 0 0 0 0 0 0 0 0 
0 0 0 0 0 0 0 0 0 
0 0 0 0 0 0 0 0 0 
0 0 0 0 0 0 0 0 0 
0 0 0 0 0 0 0 0 0 
0 0 0 0 0 0 0 0 0 
0 0 0 0 0 0 0 0 0 
0 0 0 0 0 0 0 0 0 
0 0 0 0 0 0 0 0 0 
0 0 0 0 0 0 0 0 0 
0 0 0 0 0 0 0 0 0 
0 0 0 0 0 0 0 0 0 
0 0 0 0 0 0 0 0 0 
0 0 0 0 0 0 0 0 0 
0 0 0 0 0 0 0 0 0 
0 0 0 0 0 0 0 0 0 
0 0 0 0 0 0 0 0 0 
0 0 0 0 0 0 0 0 0 
0 0 0 0 0 0 0 0 0 
0 0 0 0 0 0 0 0 0 
0 0 0 0 0 0 0 0 0 
0 0 0 0 0 0 
thickness2 1 686 float
0.907029 0.907029 0.907029 0.907029 0.907029 0.907029 0.907029 0.907029 0.907029 
0.907029 0.907029 0.907029 0.907029 0.907029 0.907029 0.907029 0.907029 0.907029 
0.907029 0.907029 0.907029 0.907029 0.907029 0.907029 0.907029 0.907029 0.907029 
0.907029 0.907029 0.907029 0.907029 0.907029 0.907029 0.907029 0.907029 0.907029 
0.907029 0.907029 0.907029 0.907029 0.907029 0.907029 0.907029 0.907029 0.907029 
0.907029 0.907029 0.907029 0.907029 0.907029 0.907029 0.907029 0.907029 0.907029 
0.907029 0.907029 0.907029 0.907029 0.907029 0.907029 0.907029 0.907029 0.907029 
0.907029 0.907029 0.907029 0.907029 0.907029 0.907029 0.907029 0.907029 0.907029 
0.907029 0.907029 0.907029 0.907029 0.907029 0.907029 0.907029 0.907029 0.907029 
0.907029 0.907029 0.907029 0.907029 0.907029 0.907029 0.907029 0.907029 0.907029 
0.907029 0.907029 0.907029 0.907029 0.907029 0.907029 0.907029 0.907029 0.907029 
0.907029 0.907029 0.907029 0.907029 0.907029 0.907029 0.907029 0.907029 0.907029 
0.907029 0.907029 0.907029 0.907029 0.907029 0.907029 0.907029 0.907029 0.907029 
0.907029 0.907029 0.907029 0.907029 0.907029 0.907029 0.907029 0.907029 0.907029 
0.907029 0.907029 0.907029 0.907029 0.907029 0.907029 0.907029 0.907029 0.907029 
0.907029 0.907029 0.907029 0.907029 0.907029 0.907029 0.907029 0.907029 0.907029 
0.907029 0.907029 0.907029 0.907029 0.907029 0.907029 0.907029 0.907029 0.907029 
0.907029 0.907029 0.907029 0.907029 0.907029 0.907029 0.907029 0.907029 0.907029 
0.907029 0.907029 0.907029 0.907029 0.907029 0.907029 0.907029 0.907029 0.907029 
0.907029 0.907029 0.907029 0.907029 0.67781 0.674133 0.676004 0.68368 0.681008 
0.676289 0.675898 0.672411 0.672244 0.672787 0.677692 0.674784 0.675493 0.683062 
0.687668 0.683416 0.677693 0.677941 0.676125 0.6709 0.671233 0.671084 0.672175 
0.6733 0.675582 0.676332 0.675279 0.674245 0.674641 0.67518 0.67555 0.677446 
0.680386 0.682936 0.675695 0.677568 0.673856 0.676392 0.67004 0.670403 0.671019 
0.67175 0.67214 0.67247 0.67278 0.673339 0.673563 0.673722 0.674441 0.672348 
0.675945 0.67555 0.675152 0.674514 0.674151 0.674178 0.674603 0.67478 0.67526 
0.675259 0.675466 0.675397 0.676127 0.675784 0.677328 0.678086 0.675761 0.675587 
0.674665 0.67257 0.6754 0.676296 0.675332 0.672131 0.672032 0.670863 0.671335 
0.671484 0.671913 0.6721 0.672366 0.672686 0.673035 0.673115 0.673547 0.671359 
0.67227 0.674193 0.673194 0.672172 0.670653 0.675741 0.675458 0.675491 0.675236 
0.675289 0.674821 0.674573 0.674121 0.673883 0.674299 0.674319 0.674677 0.674862 
0.675109 0.674926 0.6751 0.673831 0.675901 0.674649 0.672597 0.674158 0.67316 
0.674536 0.672001 0.670865 0.675074 0.67547 0.675869 0.675483 0.675155 0.674578 
0.671027 0.67069 0.671408 0.671383 0.671462 0.671743 0.672072 0.672208 0.67239 
0.672852 0.672971 0.673349 0.673597 0.670446 0.670669 0.674168 0.673598 0.673322 
0.672772 0.672477 0.671633 0.672081 0.670181 0.670761 0.675046 0.67513 0.674795 
0.67477 0.674457 0.674266 0.673768 0.673614 0.674041 0.674203 0.674483 0.674604 
0.674882 0.674805 0.674874 0.674835 0.672081 0.672219 0.674184 0.673149 0.672043 
0.670896 0.673946 0.673391 0.674169 0.673138 0.672596 0.674497 0.674683 0.671556 
0.672264 0.671919 0.670332 0.670799 0.675159 0.675144 0.675347 0.675361 0.675474 
0.675291 0.675352 0.675272 0.675145 0.674715 0.674501 0.674197 0.670854 0.671449 
0.671646 0.671739 0.672451 0.672437 0.673572 0.673669 0.670853 0.673219 0.673049 
0.672712 0.672432 0.672128 0.671935 0.671551 0.671262 0.674987 0.674733 0.674641 
0.6744 0.674276 0.673753 0.673458 0.673089 0.674681 0.674475 0.675101 0.674584 
0.671129 0.670782 0.673976 0.673405 0.673098 0.672647 0.672299 0.671854 0.671494 
0.6707 0.670346 0.673344 0.673824 0.67296 0.672875 0.674224 0.672537 0.672182 
0.674241 0.674584 0.671404 0.671758 0.671929 0.671098 0.67474 0.675009 0.675001 
0.674921 0.674871 0.675021 0.674862 0.674611 0.674286 0.674249 0.673851 0.671076 
0.672725 0.672943 0.673903 0.67437 0.675495 0.675499 0.671435 0.672976 0.672496 
0.672405 0.672191 0.671863 0.671601 0.674864 0.673929 0.673564 0.672559 0.676487 
0.676307 0.67704 0.676453 0.67078 0.673361 0.672983 0.672863 0.672507 0.672079 
0.671831 0.671666 0.671302 0.671024 0.672882 0.673278 0.673528 0.67401 0.672731 
0.674164 0.672287 0.671923 0.672018 0.674411 0.674522 0.671351 0.671687 0.674795 
0.674742 0.674748 0.674678 0.674859 0.674672 0.674554 0.674252 0.674058 0.673558 
0.670899 0.670974 0.673972 0.677375 0.675346 0.677086 0.677198 0.679042 0.671586 
0.671367 0.672579 0.672062 0.676707 0.675674 0.675148 0.673804 0.678343 0.679366 
0.671185 0.673251 0.672885 0.672776 0.672287 0.671952 0.6718 0.671548 0.671292 
0.673432 0.672424 0.673694 0.674683 0.672657 0.671894 0.674414 0.671479 0.675002 
0.674464 0.674807 0.673807 0.673444 0.670705 0.698361 0.688541 0.693977 0.695735 
0.671813 0.671597 0.674144 0.672362 0.676756 0.695064 0.671133 0.671274 0.672458 
0.672632 0.671675 0.67388 0.675186 0.675619 0.676578 0.676315 0.673374 0.67476 
0.671826 0.672934 0.676992 0.676355 0.676681 0.675682 0.675177 0.673806 0.736809 
0.723716 0.729614 0.742599 0.733842 0.745708 0.735125 0.671873 0.676664 0.672688 
0.743886 0.729949 0.688533 0.671158 0.671868 0.674604 0.67316 0.676978 0.679426 
0.678337 0.678277 0.675824 0.673854 0.679401 0.676739 0.791425 0.756303 0.775233 
0.762779 0.781526 0.784555 0.772084 0.765808 0.783403 0.774719 0.783956 0.767977 
0.782999 0.674102 0.676487 0.77379 0.781994 0.709724 0.763642 0.734265 0.77836 
0.688724 0.672956 0.673236 0.677379 0.674687 0.695706 0.696618 0.693533 0.680904 
0.695032 0.798732 0.836678 0.833593 0.797518 0.834963 0.8128 0.813982 0.79923 
0.83415 0.803192 0.833964 0.80046 0.833338 0.802613 0.834271 0.79811 0.719486 
0.775118 0.832221 0.808808 0.678711 0.689493 0.743494 0.731241 0.735416 0.746699 
0.735165 0.713648 0.725787 0.743789 0.7312 0.835487 0.69988 0.725829 0.784117 
0.771635 0.77295 0.776442 0.772615 0.7665 0.783957 0.774926 0.784021 0.766547 
0.772948 0.743981 0.7748 0.785213 0.782203 0.76408 0.77636 0.738752 0.758332 
0.813382 0.81347 0.811113 0.799893 0.810412 0.810092 0.834799 0.834106 0.803703 
0.834393 0.799618 0.814213 0.840376 0.812785 0.834493 0.79802 0.83309 0.79967 
0.792457 0.835991 
displacement2 3 686 float
0 0 0 0 0 0 0 0 0 
0 0 0 0 0 0 0 0 0 
0 0 0 0 0 0 0 0 0 
0 0 0 0 0 0 0 0 0 
0 0 0 0 0 0 0 0 0 
0 0 0 0 0 0 0 0 0 
0 0 0 0 0 0 0 0 0 
0 0 0 0 0 0 0 0 0 
0 0 0 0 0 0 0 0 0 
0 0 0 0 0 0 0 0 0 
0 0 0 0 0 0 0 0 0 
0 0 0 0 0 0 0 0 0 
0 0 0 0 0 0 0 0 0 
0 0 0 0 0 0 0 0 0 
0 0 0 0 0 0 0 0 0 
0 0 0 0 0 0 0 0 0 
0 0 0 0 0 0 0 0 0 
0 0 0 0 0 0 0 0 0 
0 0 0 0 0 0 0 0 0 
0 0 0 0 0 0 0 0 0 
0 0 0 0 0 0 0 0 0 
0 0 0 0 0 0 0 0 0 
0 0 0 0 0 0 0 0 0 
0 0 0 0 0 0 0 0 0 
0 0 0 0 0 0 0 0 0 
0 0 0 0 0 0 0 0 0 
0 0 0 0 0 0 0 0 0 
0 0 0 0 0 0 0 0 0 
0 0 0 0 0 0 0 0 0 
0 0 0 0 0 0 0 0 0 
0 0 0 0 0 0 0 0 0 
0 0 0 0 0 0 0 0 0 
0 0 0 0 0 0 0 0 0 
0 0 0 0 0 0 0 0 0 
0 0 0 0 0 0 0 0 0 
0 0 0 0 0 0 0 0 0 
0 0 0 0 0 0 0 0 0 
0 0 0 0 0 0 0 0 0 
0 0 0 0 0 0 0 0 0 
0 0 0 0 0 0 0 0 0 
0 0 0 0 0 0 0 0 0 
0 0 0 0 0 0 0 0 0 
0 0 0 0 0 0 0 0 0 
0 0 0 0 0 0 0 0 0 
0 0 0 0 0 0 0 0 0 
0 0 0 0 0 0 0 0 0 
0 0 0 0 0 0 0 0 0 
0 0 0 0 0 0 0 0 0 
0 0 0 0 0 0 0 0 0 
0 0 0 0 0 0 0 0 0 
0 0 0 0 0 0 0 0 0 
0 0 0 0 0 0 0 0 0 
0 0 0 0 0 0 0 0 0 
0 0 0 0 0 0 0 0 0 
0 0 0 0 0 0 0 0 0 
0 0 0 0 0 0 0 0 0 
0 0 0 0 0 0 0 0 0 
0 0 0 0 0 0 0 0 0 
0 0 0 0.648637 0.042896 -1.16111 0.490757 0.056502 -1.26254 
1.11053 0.055517 -0.866263 1.27171 0.032506 -0.488925 0.847777 0.00121 -1.09672 
0 0.049675 -1.33925 0 0.036828 -1.40372 0 0.062006 -1.36048 
0.347197 0.06141 -1.31093 0.704583 0.061886 -1.19783 1.43117 0.050867 0.026063 
1.0227 0.056816 -0.897948 1.30425 0.057359 -0.483078 1.26016 0.032888 0.516748 
1.33437 0.00026 0.013863 1.26965 -0.03171 -0.497322 0.648289 -0.04158 -1.15955 
0 0.00032 -1.20696 0 -0.03506 -1.40468 0 0.060644 -1.36694 
0.169996 0.061016 -1.35834 0.363296 0.060015 -1.33845 0.565824 0.056808 -1.25366 
0.817994 0.056039 -1.10404 1.08374 0.055743 0.897594 1.35469 0.053458 0.015998 
1.29314 0.057555 0.514519 0.992587 0.054208 -0.930405 1.15579 0.054393 -0.72774 
1.26022 0.053014 -0.496932 1.3385 0.053108 -0.248583 0.630815 0.041936 1.16533 
0.838094 -0.00119 1.09853 1.26569 -0.03364 0.508598 1.09675 -0.05526 -0.885252 
1.43204 -0.05106 0.000843 0.482759 -0.055679 -1.26699 0 -0.048158 -1.33683 
0 0.058578 -1.37314 0.123201 0.05868 -1.37406 0.20959 0.055801 -1.36386 
0.375709 0.055445 -1.32209 0.465464 0.054244 -1.28852 0.54924 0.053561 -1.25302 
0.687777 0.053482 -1.1845 0.797711 0.053305 -1.10502 0.89673 0.052654 -1.02766 
0.467334 0.055863 1.26227 1.00383 0.0573 0.919288 0.679435 0.062262 1.21698 
1.35202 0.052049 0.008748 1.33471 0.053181 0.267772 1.25326 0.053236 0.514153 
1.14457 0.054776 0.744837 0.982238 0.052342 -0.937141 1.07107 0.052055 -0.838771 
1.14257 0.052039 -0.728893 1.20737 0.051541 -0.62017 1.25453 0.051364 -0.50272 
1.30191 0.051073 -0.377215 1.3279 0.051161 -0.247805 1.34792 0.050861 -0.121394 
0 0.047679 1.33259 0 0.034065 1.40153 0.639536 -0.043711 1.16579 
0 -0.00122 1.20571 0 -0.03674 1.40358 1.10016 -0.05694 0.879061 
1.01415 -0.05674 -0.90859 0.697094 -0.061581 -1.20315 1.29946 -0.057461 -0.498101 
1.35478 -0.053721 -0.000894 1.29986 -0.058102 0.495697 0 -0.0616 -1.36176 
0.34195 -0.060989 -1.31381 0 0.055591 -1.38462 0.14988 0.051784 -1.37086 
0.2903 0.052829 -1.34577 0.391263 0.053026 -1.31554 0.46908 0.052047 -1.28998 
0.582921 0.050793 -1.2421 0.702128 0.050545 -1.17294 0.808508 0.051199 -1.10361 
0.89337 0.050721 -1.02867 0.985444 0.050308 -0.945981 0.284337 0.061862 1.34146 
0 0.060394 1.34435 0.979767 0.054475 0.9435 0.803181 0.056248 1.11498 
0.549255 0.056734 1.25953 0.348534 0.060201 1.34093 1.34889 0.050803 0.006063 
1.34641 0.050876 0.140669 1.32329 0.051286 0.270609 1.29553 0.051323 0.396115 
1.24916 0.051596 0.514937 1.19765 0.051784 0.638721 1.12845 0.052365 0.749691 
1.05661 0.052387 0.855268 1.07736 0.04992 -0.829595 1.15245 0.050338 -0.723129 
1.2047 0.049999 -0.621505 1.26095 0.049678 -0.509688 1.30449 0.04937 -0.365223 
1.33535 0.049755 -0.237326 1.34646 0.049551 -0.122472 1.3575 0.049382 0.002731 
0.484986 -0.057569 1.26426 0 -0.05043 1.33859 1.01681 -0.057741 0.905016 
0.699128 -0.062849 1.19981 0.993294 -0.054119 -0.931401 0.814429 -0.055811 -1.10843 
1.15432 -0.05443 -0.731523 0.561285 -0.05648 -1.25758 0.364701 -0.059759 -1.3387 
1.25781 -0.053129 -0.506218 1.33667 -0.053292 -0.263072 1.35294 -0.0523 -0.009648 
1.33884 -0.05356 0.250256 1.26104 -0.053591 0.496149 1.15545 -0.055071 0.728066 
0.172654 -0.060681 -1.36038 0 -0.0603 -1.36897 0 0.049861 -1.37654 
0.155255 0.047507 -1.36916 0.259855 0.049708 -1.35116 0.363561 0.05059 -1.32459 
0.461553 0.049635 -1.29244 0.534988 0.047873 -1.26084 0.666082 0.047999 -1.19608 
0.769367 0.048965 -1.12855 0.891094 0.048553 -1.0366 0.976086 0.048206 -0.948156 
1.0508 0.048064 -0.865833 0.194584 0.060884 1.3591 0 0.061874 1.37206 
0.971177 0.052535 0.947522 0.880231 0.05282 1.04073 0.780331 0.053566 1.1171 
0.672163 0.053613 1.19141 0.533534 0.053347 1.25908 0.361022 0.055517 1.32688 
0.448147 0.054034 1.29456 0.151406 0.059324 1.37346 0.208241 0.056437 1.36549 
1.34456 0.04932 0.154044 1.32598 0.049933 0.284482 1.29375 0.049932 0.3957 
1.25772 0.049939 0.515941 1.18961 0.049928 0.651679 1.12482 0.050681 0.764768 
1.05438 0.050594 0.85551 0.97737 0.050499 0.952912 1.12374 0.048601 -0.7629 
1.20416 0.048304 -0.631451 1.25283 0.048044 -0.515682 1.29257 0.047885 -0.410566 
1.32349 0.048289 -0.284321 1.34973 0.048099 -0.132289 1.35234 0.047897 -0.005802 
1.35033 0.04785 0.106612 0.344044 -0.062349 1.31154 0 -0.06296 1.35976 
0.993753 -0.054941 0.929668 0.81775 -0.0568 1.10381 0.56667 -0.057551 1.253 
0.366026 -0.060982 1.33605 0.998684 -0.05179 -0.924355 0.896217 -0.05238 -1.03047 
1.0849 -0.052311 -0.81945 0.793257 -0.05311 -1.11017 0.685115 -0.05321 -1.18763 
1.14314 -0.052169 -0.729921 1.20631 -0.05164 -0.624646 0.369332 -0.055278 -1.32575 
0.543578 -0.053251 -1.25719 0.460138 -0.053971 -1.29221 0.149161 -0.05864 -1.37251 
0.210882 -0.056011 -1.36573 1.25289 -0.05146 -0.510408 1.30082 -0.051211 -0.385299 
1.32597 -0.05138 -0.264145 1.3444 -0.051312 -0.154822 1.35174 -0.050751 -0.027944 
1.34916 -0.05105 0.129422 1.32802 -0.05162 0.253031 1.30493 -0.051849 0.361712 
1.26374 -0.05159 0.484929 1.20725 -0.05208 0.621586 1.14363 -0.05278 0.727727 
1.08516 -0.053009 0.817421 0 -0.05666 -1.38316 0 0.044006 -1.37215 
0.181632 0.042704 -1.36346 0.368252 0.046133 -1.32654 0.614163 0.043796 -1.23697 
0.798863 0.045786 -1.11283 0.998758 0.045315 -0.943471 1.14042 0.046162 -0.744296 
0 0.057425 1.38203 0.8643 0.050555 1.05434 0.780198 0.051791 1.12132 
0.694001 0.050692 1.17635 0.571513 0.050618 1.24576 0.451755 0.051754 1.2951 
0.373163 0.0529 1.32026 0.270244 0.053166 1.34983 0.136606 0.053367 1.37317 
1.33213 0.048414 0.237081 1.30024 0.04844 0.387763 1.25574 0.048307 0.506459 
1.21227 0.048262 0.609595 1.14697 0.048835 0.724431 1.06366 0.04872 0.849962 
0.979802 0.048333 0.942896 0.901437 0.048235 1.02394 1.27064 0.045849 -0.510786 
1.33154 0.046225 -0.265232 1.36686 0.045845 -7.2e-05 1.33321 0.046421 0.254617 
0.173175 -0.06197 1.35723 0 -0.06159 1.36586 0.997989 -0.05258 0.923475 
0.890222 -0.05329 1.03393 0.794394 -0.05426 1.10842 0.700855 -0.054692 1.17439 
0.564171 -0.053751 1.24784 0.462509 -0.054829 1.29092 0.370322 -0.056401 1.32436 
0.213789 -0.057338 1.36413 0.149656 -0.059941 1.37018 0.968789 -0.049891 -0.962745 
1.06441 -0.05023 -0.85037 0.888953 -0.050461 -1.03426 0.806607 -0.050982 -1.10636 
1.15165 -0.050501 -0.726484 0.701673 -0.05028 -1.17419 0.583429 -0.05048 -1.24273 
1.2041 -0.050122 -0.625536 1.26048 -0.049791 -0.514528 0.273369 -0.052749 -1.35082 
0.382844 -0.05279 -1.3192 0.464896 -0.05174 -1.29284 0.13339 -0.052728 -1.37524 
1.30452 -0.049469 -0.371279 1.33575 -0.049961 -0.245488 1.34996 -0.0499 -0.109201 
1.3577 -0.049281 0.017051 1.34614 -0.049391 0.152986 1.32925 -0.050209 0.277041 
1.29158 -0.05047 0.409558 1.25097 -0.050101 0.531269 1.20051 -0.050548 0.630747 
1.1504 -0.051081 0.726569 1.06305 -0.050942 0.850677 0 -0.050259 -1.38335 